515
	Energy:     135.5557727
H         -9.82058       -2.24076      -10.32345
O         -9.77457       -1.27026      -10.39434
P         -8.35607       -1.00061       -9.67895
O         -7.78658        0.27752      -10.21351
O         -7.67807       -2.33517       -9.79766
O         -8.90498       -0.83657       -8.17680
C         -9.62365        0.33198       -7.84191
C         -9.66134        0.49687       -6.32728
O        -10.44931       -0.55796       -5.72730
C         -8.28133        0.43421       -5.70314
O         -8.35491        1.27355       -4.56365
C         -8.10659       -1.05439       -5.40838
O         -7.21011       -1.38665       -4.36311
C         -9.54622       -1.53807       -5.15133
N         -9.93709       -2.82816       -5.71356
C         -9.34714       -3.51661       -6.74787
N        -10.03484       -4.58367       -7.10948
C        -11.11818       -4.58997       -6.27314
C        -12.19182       -5.48952       -6.16654
N        -12.34588       -6.57349       -7.03738
N        -13.06661       -5.33974       -5.14855
C        -12.88656       -4.28002       -4.32291
N        -11.93703       -3.32604       -4.36693
C        -11.06491       -3.54369       -5.36675
H         -9.74429       -1.59695       -4.07252
H         -7.67260       -1.52466       -6.28909
H         -7.50540        0.82061       -6.37257
H        -10.16907        1.43851       -6.08720
H         -9.14694        1.21065       -8.28535
H        -10.64260        0.23521       -8.22671
H        -13.59954       -4.19475       -3.50781
H         -8.42718       -3.20108       -7.22684
H        -12.74006       -7.36225       -6.54563
H        -11.47473       -6.73539       -7.54015
H         -6.46758       -0.72597       -4.39400
P         -6.96434        1.60178       -3.81221
O         -6.92916        3.07342       -3.50219
O         -5.85866        0.87494       -4.53616
O         -7.29354        0.75775       -2.49245
C         -8.21957        1.23866       -1.55186
C         -7.88096        0.62128       -0.20363
O         -8.41762       -0.71862       -0.11438
C         -6.38185        0.52985        0.00860
O         -6.19722        0.72753        1.39887
C         -6.07101       -0.86886       -0.52458
O         -4.82928       -1.39169       -0.10244
C         -7.32614       -1.68330       -0.12134
N         -7.78170       -2.80667       -0.96623
C         -8.92154       -3.51862       -0.56798
O         -9.46809       -3.34794        0.52230
N         -9.47444       -4.44107       -1.44543
C         -8.83715       -4.73914       -2.53487
N         -9.43800       -5.63004       -3.39301
C         -7.54014       -4.15319       -2.89695
C         -7.08088       -3.20690       -2.08140
H         -7.21279       -2.07110        0.89960
H         -5.99121       -0.81474       -1.60971
H         -5.81937        1.31002       -0.51561
H         -8.37920        1.19731        0.58377
H         -8.14269        2.32606       -1.47346
H         -9.22855        0.96236       -1.86943
H         -7.00595       -4.47436       -3.77757
H         -6.12490       -2.74219       -2.29422
H        -10.44120       -5.62898       -3.25739
H         -9.16872       -5.51826       -4.36436
H         -4.20322       -0.62849        0.00955
P         -4.68645        0.80053        1.95813
O         -4.62956        1.88618        3.00061
O         -3.72230        0.72178        0.80195
O         -4.72303       -0.64246        2.67157
C         -5.52190       -0.79236        3.82385
C         -4.90772       -1.88054        4.68793
O         -5.31845       -3.18571        4.20506
C         -3.38959       -1.81396        4.65975
O         -2.94956       -2.15005        5.96380
C         -3.03763       -2.79890        3.54636
O         -1.76747       -3.41250        3.65311
C         -4.19379       -3.82253        3.54996
N         -4.65112       -4.33271        2.25336
C         -4.28341       -3.84814        1.02057
N         -4.91480       -4.42412        0.01986
C         -5.66619       -5.37845        0.61606
C         -6.47579       -6.39431       -0.00588
O         -6.69152       -6.55113       -1.20606
N         -6.95532       -7.30622        0.90873
C         -6.56684       -7.34239        2.22693
N         -6.91466       -8.48686        2.87837
N         -5.86557       -6.41664        2.82646
C         -5.45927       -5.42441        1.98424
H         -3.91720       -4.70711        4.13708
H         -3.00171       -2.23544        2.61463
H         -3.02460       -0.80438        4.43703
H         -5.30332       -1.78915        5.70568
H         -5.54318        0.14023        4.39449
H         -6.53985       -1.05523        3.52367
H         -7.52186       -8.02721        0.50424
H         -3.54947       -3.06646        0.88537
H         -6.86303       -9.30349        2.28353
H         -6.32500       -8.58878        3.70015
H         -1.14879       -2.73266        4.01181
P         -1.39229       -1.87279        6.30356
O         -1.27219       -1.46285        7.74803
O         -0.74929       -1.12829        5.16670
O         -0.91954       -3.39483        6.14352
C         -1.42362       -4.35286        7.03731
C         -0.52356       -5.56850        6.97171
O         -0.98275       -6.48005        5.95192
C          0.91103       -5.19217        6.65274
O          1.68546       -6.07022        7.44608
C          0.96499       -5.37685        5.13154
O          2.26365       -5.54925        4.59322
C          0.00335       -6.56010        4.89055
N         -0.76378       -6.66310        3.63197
C         -1.66687       -7.71706        3.52529
O         -1.76159       -8.68487        4.28266
N         -2.52172       -7.66201        2.45342
C         -2.36675       -6.86791        1.36257
O         -2.90638       -7.13516        0.29335
C         -1.41463       -5.76377        1.51627
C         -0.64114       -5.73991        2.60699
H          0.54290       -7.50961        5.00515
H          0.57363       -4.47007        4.66744
H          1.17830       -4.17269        6.95100
H         -0.61466       -6.11570        7.91604
H         -1.39645       -3.94397        8.04982
H         -2.45303       -4.60522        6.76707
H         -3.13872       -8.44364        2.34672
H         -1.34815       -5.02513        0.72787
H          0.10008       -4.95321        2.70862
H          2.88094       -4.99862        5.14499
P          3.28356       -5.88127        7.42210
O          3.81067       -6.13536        8.80998
O          3.63488       -4.66292        6.60893
O          3.54279       -7.16591        6.49619
C          3.36407       -8.44708        7.04593
C          4.33944       -9.37261        6.34504
O          3.78855       -9.79844        5.07553
C          5.66089       -8.67378        6.06900
O          6.65211       -9.67550        6.20546
C          5.44908       -8.10562        4.66354
O          6.62646       -7.86516        3.91429
C          4.49052       -9.11597        4.00502
N          3.48759       -8.59391        3.07854
C          3.33908       -7.29217        2.66772
N          2.37832       -7.13827        1.77725
C          1.87022       -8.39823        1.60583
C          0.86627       -8.86485        0.73826
N          0.19026       -8.01439       -0.13320
N          0.61943      -10.18917        0.68685
C          1.40088      -10.98988        1.44825
N          2.37755      -10.66459        2.32177
C          2.56496       -9.33148        2.36132
H          5.05541       -9.86563        3.43614
H          4.97685       -7.12688        4.75309
H          5.88202       -7.88679        6.79914
H          4.46355      -10.27979        6.94601
H          3.58365       -8.43973        8.11663
H          2.32926       -8.76329        6.88924
H          1.22693      -12.05288        1.31904
H          3.95959       -6.48211        3.03222
H         -0.77363       -8.28195       -0.29355
H          0.32927       -7.03926        0.12657
H          7.29919       -7.50746        4.54835
P          8.18947       -9.18413        6.17332
O          8.97948      -10.01433        7.15277
O          8.23493       -7.67985        6.13263
O          8.48164       -9.68817        4.68397
C          8.47576      -11.06120        4.39625
C          9.29261      -11.26682        3.13419
O          8.45573      -11.12346        1.96595
C         10.41798      -10.25573        3.02184
O         11.47986      -10.96455        2.40533
C          9.76240       -9.14089        2.20203
O         10.69035       -8.26350        1.59680
C          8.83462       -9.92116        1.23823
N          7.57930       -9.32065        0.74879
C          6.79339      -10.07197       -0.13752
O          7.15499      -11.16351       -0.58136
N          5.56151       -9.57767       -0.53112
C          5.21402       -8.37757       -0.18066
N          3.99184       -7.92139       -0.60687
C          6.06345       -7.50670        0.64686
C          7.21525       -8.02972        1.06096
H          9.40257      -10.23203        0.35153
H          9.16807       -8.51418        2.86779
H         10.78653       -9.89576        3.98857
H          9.65383      -12.30037        3.11512
H          8.94353      -11.60720        5.21899
H          7.44534      -11.40368        4.26494
H          5.76144       -6.49390        0.87082
H          7.89312       -7.41916        1.64662
H          3.34861       -8.67512       -0.81249
H          3.56097       -7.22291        0.00193
H         11.46641       -8.17962        2.20906
P         12.89438      -10.21162        2.22972
O         13.99316      -11.21263        2.48700
O         12.83997       -8.86566        2.90454
O         12.74076       -9.97417        0.64484
C         12.78221      -11.10069       -0.20029
C         13.33966      -10.66383       -1.54370
O         12.27033      -10.14027       -2.37270
C         14.40076       -9.58374       -1.38767
O         15.38066       -9.84723       -2.37773
C         13.58224       -8.30221       -1.54512
O         14.28209       -7.18375       -2.05577
C         12.39076       -8.69904       -2.44439
N         11.08458       -8.10975       -2.13738
C         10.77939       -7.37461       -1.01695
N          9.51518       -7.02298       -0.94908
C          8.98801       -7.47548       -2.11008
C          7.66354       -7.25840       -2.63016
O          6.75595       -6.61712       -2.10874
N          7.51671       -7.76291       -3.90236
C          8.57349       -8.18231       -4.67471
N          8.28327       -8.28886       -6.00165
N          9.78675       -8.39871       -4.23386
C          9.94106       -8.07157       -2.91822
H         12.59910       -8.42975       -3.48728
H         13.25424       -8.00731       -0.54828
H         14.89944       -9.62710       -0.41222
H         13.72695      -11.54548       -2.06634
H         13.43915      -11.86575        0.22247
H         11.77404      -11.51166       -0.30495
H          6.59887       -7.61745       -4.28152
H         11.50403       -7.10756       -0.26155
H          7.59517       -7.60914       -6.30168
H          9.14280       -8.21240       -6.53628
H         15.21243       -7.24822       -1.74401
P         16.78256       -9.04687       -2.27963
O         17.88640       -9.92450       -2.81224
O         16.86806       -8.30878       -0.97418
O         16.40901       -7.94344       -3.38261
C         16.20568       -8.37544       -4.70505
C         16.33081       -7.17878       -5.62362
O         15.04515       -6.55863       -5.82037
C         17.27494       -6.13168       -5.06869
O         17.95577       -5.63524       -6.20607
C         16.31583       -5.17615       -4.35028
O         16.83218       -3.87471       -4.13378
C         15.04497       -5.23456       -5.22605
N         13.70653       -5.05955       -4.62866
C         12.61127       -5.19860       -5.47884
O         12.64587       -5.27175       -6.70907
N         11.38467       -5.24587       -4.86674
C         11.13041       -4.88299       -3.58285
O         10.00220       -4.57522       -3.21511
C         12.30622       -4.75943       -2.71658
C         13.51782       -4.80773       -3.28012
H         15.12014       -4.50272       -6.04114
H         16.11313       -5.58253       -3.35802
H         18.03467       -6.53637       -4.39151
H         16.63637       -7.53663       -6.61268
H         16.98291       -9.09803       -4.96363
H         15.22203       -8.84559       -4.79545
H         10.58753       -5.29027       -5.47258
H         12.14940       -4.59851       -1.65751
H         14.39285       -4.66731       -2.65375
H         17.80484       -3.97471       -3.95978
P         19.13761       -4.57099       -5.96059
O         20.24273       -4.84917       -6.94721
O         19.37145       -4.40762       -4.48152
O         18.27936       -3.30666       -6.44934
C         17.96493       -3.18584       -7.81395
C         17.85904       -1.70420       -8.12112
O         16.53842       -1.22301       -7.77580
C         18.87195       -0.89774       -7.32448
O         19.26274        0.16597       -8.17430
C         18.08205       -0.52016       -6.06869
O         18.53279        0.63793       -5.38853
C         16.62652       -0.42413       -6.56795
N         15.56898       -0.86895       -5.66253
C         15.71797       -1.30681       -4.37013
N         14.57061       -1.58396       -3.78353
C         13.62713       -1.31886       -4.74084
C         12.22356       -1.36921       -4.67533
N         11.55340       -1.73899       -3.51525
N         11.51281       -0.95243       -5.74185
C         12.20652       -0.46154       -6.79363
N         13.54209       -0.37344       -6.97999
C         14.20859       -0.83018       -5.90213
H         16.37685        0.61283       -6.82663
H         18.18648       -1.32536       -5.34058
H         19.77232       -1.47334       -7.08113
H         17.96515       -1.55769       -9.20125
H         18.75645       -3.62349       -8.42761
H         17.02258       -3.70376       -8.01282
H         11.59419       -0.06123       -7.59490
H         16.68075       -1.40081       -3.88290
H         10.65939       -2.19012       -3.67402
H         12.16562       -2.20504       -2.85005
H         19.52238        0.62460       -5.42403
P         20.49805        1.07992       -7.67972
O         21.31776        1.47394       -8.88187
O         21.09293        0.49005       -6.42865
O         19.60208        2.31998       -7.21410
C         18.87013        3.05063       -8.16260
C         18.58617        4.41825       -7.56900
O         17.34753        4.39742       -6.82832
C         19.68311        4.85905       -6.61894
O         19.77145        6.26298       -6.79380
C         19.15480        4.36190       -5.27062
O         19.76489        4.98906       -4.16002
C         17.62338        4.55312       -5.40770
N         16.68578        3.65800       -4.70470
C         15.31007        3.89489       -4.85785
O         14.87472        4.86516       -5.48110
N         14.40772        3.01164       -4.29236
C         14.84228        2.05712       -3.52830
N         13.91402        1.21674       -2.96982
C         16.26996        1.84437       -3.24413
C         17.11964        2.67360       -3.84526
H         17.35360        5.57904       -5.12457
H         19.39159        3.30234       -5.16771
H         20.66781        4.44180       -6.85605
H         18.42973        5.12897       -8.38729
H         19.47038        3.17067       -9.06768
H         17.94441        2.51951       -8.40229
H         16.58385        1.07168       -2.55744
H         18.18026        2.58260       -3.64153
H         13.04060        1.19768       -3.48212
H         14.24560        0.27140       -2.77019
H         20.70793        5.17826       -4.40292
P         20.93005        7.05518       -6.00267
O         21.46684        8.13536       -6.90840
O         21.82452        6.07368       -5.29038
O         19.94678        7.70878       -4.90920
C         19.02379        8.68031       -5.34415
C         18.76432        9.63488       -4.19124
O         17.71393        9.10132       -3.34401
C         20.00953        9.84647       -3.33866
O         19.98710       11.20493       -2.93520
C         19.82963        8.79219       -2.24539
O         20.42515        9.07241       -0.99321
C         18.30143        8.60333       -2.11886
N         17.81031        7.24241       -1.87965
C         18.57375        6.09976       -1.92646
N         17.88362        4.99902       -1.73655
C         16.63075        5.44129       -1.47674
C         15.48273        4.67148       -1.07444
O         15.43412        3.45904       -0.89156
N         14.40109        5.46954       -0.77918
C         14.48526        6.83418       -0.63252
N         13.41850        7.39026        0.00630
N         15.51157        7.56543       -0.99081
C         16.55778        6.82400       -1.45903
H         17.91492        9.20712       -1.28832
H         20.31937        7.88587       -2.60171
H         20.93449        9.68769       -3.90559
H         18.37994       10.57775       -4.59557
H         19.43669        9.24454       -6.18477
H         18.10236        8.18480       -5.66344
H         13.58832        4.94880       -0.50106
H         19.63973        6.09791       -2.10051
H         12.98320        6.76169        0.67070
H         13.69582        8.26556        0.43706
H         21.16229        9.70208       -1.13930
P         21.32334       11.82188       -2.26652
O         21.41818       13.28615       -2.60967
O         22.47001       10.86343       -2.41028
O         20.81345       11.66692       -0.75131
C         19.70326       12.43680       -0.35427
C         19.68775       12.51907        1.15762
O         18.91305       11.43640        1.70870
C         21.08292       12.44464        1.74553
O         21.05897       13.34226        2.83969
C         21.21965       10.95212        2.06478
O         22.20959       10.64092        3.02933
C         19.78113       10.54307        2.45143
N         19.28949        9.17823        2.18030
C         17.95761        8.91029        2.49514
O         17.20678        9.63636        3.14974
N         17.46560        7.71481        2.03478
C         18.22076        6.67627        1.59196
O         17.79911        5.52548        1.59132
C         19.60857        7.00090        1.25362
C         20.08148        8.20130        1.60213
H         19.61466       10.72804        3.52076
H         21.52767       10.44035        1.15174
H         21.86730       12.79184        1.06454
H         19.15927       13.43382        1.44701
H         19.81032       13.44658       -0.75685
H         18.78305       11.98575       -0.73759
H         16.52747        7.48536        2.30600
H         20.20819        6.24274        0.76625
H         21.12228        8.43098        1.40026
H         22.95045       11.28990        2.90124
P         22.43451       13.58736        3.63775
O         22.50603       15.03786        4.03927
O         23.56152       12.86649        2.94410
O         22.01357       12.69695        4.90468
C         21.01472       13.17397        5.77138
C         21.32876       12.63747        7.15664
O         20.80219       11.29499        7.28793
C         22.82877       12.57406        7.40742
O         23.00891       12.84012        8.78863
C         23.18086       11.15836        6.94407
O         24.35613       10.60845        7.51560
C         21.90019       10.34955        7.23824
N         21.53905        9.28865        6.29846
C         22.26373        8.87437        5.20852
N         21.72643        7.84086        4.59263
C         20.58442        7.57701        5.30396
C         19.63128        6.55311        5.15300
N         19.73030        5.59153        4.15378
N         18.64946        6.44747        6.06960
C         18.67230        7.31510        7.10611
N         19.51980        8.33890        7.35410
C         20.46482        8.42395        6.39761
H         21.97213        9.86139        8.21848
H         23.38348       11.18439        5.87311
H         23.38144       13.33748        6.84785
H         20.80607       13.24676        7.90138
H         21.02142       14.26664        5.79820
H         20.03939       12.82654        5.41886
H         17.90852        7.14485        7.85798
H         23.18960        9.34313        4.89922
H         18.83571        5.23017        3.83846
H         20.36307        5.87327        3.41003
H         25.01272       11.34812        7.57662
P         24.52376       13.05785        9.30497
O         24.53370       14.13996       10.35389
O         25.47041       13.03222        8.13325
O         24.66577       11.63244       10.01861
C         23.87954       11.32197       11.13849
C         24.57938       10.20312       11.89591
O         24.15008        8.92050       11.38617
C         26.09086       10.26343       11.74943
O         26.62410        9.74561       12.96245
C         26.32463        9.38785       10.51667
O         27.66420        8.94421       10.40139
C         25.25195        8.28238       10.68237
N         24.67324        7.61384        9.50400
C         23.73220        6.59515        9.72324
O         23.45513        6.19097       10.85463
N         23.10251        6.01445        8.63764
C         23.47482        6.33253        7.43587
N         22.83796        5.72077        6.38722
C         24.54161        7.30781        7.16191
C         25.09320        7.89205        8.22283
H         25.64331        7.48883       11.33235
H         26.13426        9.97075        9.61548
H         26.47705       11.28076       11.62311
H         24.25942       10.23273       12.94250
H         23.80096       12.20146       11.78208
H         22.88064       11.01787       10.81067
H         24.85668        7.50429        6.14737
H         25.90209        8.59774        8.07595
H         21.91673        5.37647        6.63250
H         22.80055        6.26271        5.52123
H         28.24317        9.67255       10.74573
P         28.21577        9.85622       13.20647
O         28.46182       10.28469       14.63155
O         28.87775       10.53301       12.03288
O         28.52756        8.27955       13.07520
C         28.07463        7.42126       14.09628
C         28.99014        6.19900       14.13389
O         28.49273        5.22169       13.17708
C         30.44445        6.53177       13.76796
O         31.32068        5.67930       14.50197
C         30.44861        6.27883       12.26138
O         31.68768        5.88843       11.68956
C         29.36679        5.20060       12.02934
N         28.58502        5.31440       10.79342
C         28.61647        6.39537        9.94373
N         27.84356        6.26244        8.89300
C         27.31606        5.02483        9.03500
C         26.45783        4.32459        8.10717
O         26.08160        4.71658        7.02503
N         26.19400        3.03720        8.53963
C         26.84573        2.42743        9.58563
N         26.63391        1.08465        9.66250
N         27.65696        3.03390       10.42110
C         27.82136        4.36079       10.13794
H         29.83167        4.20774       11.98929
H         30.19809        7.22739       11.78949
H         30.69687        7.56762       14.02139
H         28.91220        5.72965       15.12054
H         28.11404        7.92901       15.06370
H         27.03809        7.13652       13.88708
H         25.58212        2.53839        7.91762
H         29.21931        7.27521       10.11024
H         26.36947        0.64208        8.79162
H         27.38103        0.61039       10.15212
H         32.26465        5.59412       12.41502
P         32.88808        6.08979       14.62923
O         33.42303        5.69650       15.98138
O         33.17708        7.42046       14.00306
O         33.42773        4.99526       13.55522
C         33.38359        3.64146       13.96195
C         34.24170        2.80878       13.01902
O         33.43804        2.47783       11.86809
C         35.48847        3.53439       12.51845
O         36.58574        2.61546       12.35430
C         35.07315        4.06974       11.15317
O         36.21565        4.15282       10.27962
C         34.03507        3.03109       10.68601
N         32.96322        3.44343        9.77525
C         32.10644        2.43077        9.33439
O         32.33298        1.22557        9.45321
N         30.97441        2.84787        8.68650
C         30.79861        4.08345        8.14391
O         30.01378        4.28553        7.22863
C         31.69336        5.12497        8.65277
C         32.72389        4.76105        9.42159
H         34.56449        2.21014       10.18427
H         34.65953        5.07186       11.28255
H         35.84398        4.31997       13.19388
H         34.48888        1.86162       13.50962
H         33.77774        3.54888       14.97648
H         32.34183        3.30223       13.94692
H         30.36022        2.13578        8.33092
H         31.46017        6.15523        8.41109
H         33.35897        5.54471        9.81833
H         35.85333        4.27371        9.38223
H         37.18534        3.09671       11.74759
