643
	Energy:     292.9621191
H         -2.50349        8.91883       -0.90017
O         -2.12187        9.74407       -0.55042
P         -0.58140        9.29898       -0.38991
O          0.28097       10.51994       -0.48719
O         -0.48596        8.12840       -1.32582
O         -0.67696        8.74438        1.11619
C         -0.82034        9.67183        2.17147
C         -0.45813        9.00770        3.49465
O         -1.42547        7.98313        3.82311
C          0.90271        8.34100        3.45552
O          1.39706        8.43541        4.78039
C          0.57696        6.92627        2.98054
O          1.49587        5.91286        3.34892
C         -0.84324        6.68664        3.52628
N         -1.79672        6.00511        2.65505
C         -1.74966        5.86990        1.28714
N         -2.84478        5.32633        0.78952
C         -3.63797        5.09808        1.88138
C         -4.91550        4.52341        1.98574
N         -5.64970        4.12841        0.86238
N         -5.42260        4.28494        3.21459
C         -4.68428        4.67891        4.28076
N         -3.48445        5.29009        4.29831
C         -3.00107        5.46395        3.05587
H         -0.80325        6.10552        4.45753
H          0.59892        6.92144        1.89212
H          1.59796        8.85692        2.78475
H         -0.51625        9.75683        4.29311
H         -0.16413       10.53200        2.01190
H         -1.86107       10.00615        2.20080
H         -5.11461        4.46255        5.25440
H         -0.91031        6.19651        0.68369
H         -6.18792        3.30020        1.07153
H         -5.03600        4.08363        0.05046
H          2.40270        6.32051        3.33080
P          2.94097        8.02318        5.01015
O          3.58236        9.06108        5.89019
O          3.51069        7.58684        3.68349
O          2.62909        6.69373        5.84564
C          2.17921        6.77645        7.17396
C          2.55543        5.48149        7.87786
O          1.59600        4.44424        7.56998
C          3.92158        4.98522        7.44413
O          4.46817        4.36644        8.59509
C          3.56760        4.05786        6.28141
O          4.58862        3.14859        5.92848
C          2.22388        3.43158        6.73203
N          1.21104        3.05130        5.72596
C          0.00792        2.48850        6.17410
O         -0.18005        2.16126        7.34632
N         -1.02625        2.31082        5.26579
C         -0.80295        2.51466        4.00469
N         -1.86505        2.36335        3.14446
C          0.50359        2.92189        3.47180
C          1.44838        3.17184        4.37535
H          2.40989        2.54671        7.35491
H          3.41894        4.66430        5.38865
H          4.60181        5.78960        7.14401
H          2.49262        5.63679        8.96045
H          2.66740        7.61153        7.68271
H          1.09616        6.92572        7.17636
H          0.67155        3.01603        2.41023
H          2.43547        3.47069        4.04130
H         -2.73942        2.49825        3.63656
H         -1.79646        2.91715        2.29763
H          5.46023        3.58728        6.11513
P          5.98359        3.82094        8.51226
O          6.66539        4.14601        9.81538
O          6.56858        4.17634        7.16909
O          5.57925        2.26266        8.47947
C          5.05572        1.68860        9.65633
C          5.39696        0.20799        9.65491
O          4.43762       -0.52024        8.84595
C          6.78584       -0.03535        9.08776
O          7.34552       -1.09913        9.83777
C          6.49532       -0.32105        7.61561
O          7.44173       -1.14037        6.95615
C          5.07471       -0.92640        7.60920
N          4.18770       -0.56168        6.49999
C          4.42427        0.41828        5.56540
N          3.42029        0.60593        4.73541
C          2.52251       -0.34187        5.09169
C          1.27814       -0.67942        4.44969
O          0.75807       -0.12491        3.48344
N          0.71188       -1.81661        4.98329
C          1.34099       -2.62600        5.89929
N          0.74805       -3.84026        6.06993
N          2.44926       -2.32819        6.52463
C          2.99585       -1.14951        6.11163
H          5.12768       -2.02223        7.60033
H          6.52933        0.63087        7.08694
H          7.43959        0.83619        9.20985
H          5.29694       -0.17871       10.67525
H          5.50734        2.15288       10.53742
H          3.97368        1.84355        9.68107
H         -0.15641       -2.07710        4.55591
H          5.34416        0.98365        5.51881
H          0.36226       -4.20853        5.21036
H          1.42413       -4.48089        6.47733
H          8.32992       -0.89114        7.30710
P          8.92979       -1.36918        9.64966
O          9.50797       -1.82335       10.96441
O          9.53240       -0.28337        8.80204
O          8.76504       -2.63236        8.67869
C          8.15158       -3.79127        9.17996
C          8.49868       -4.93835        8.25452
O          7.52050       -5.04695        7.19932
C          9.86122       -4.75467        7.61320
O         10.40989       -6.05780        7.58267
C          9.50375       -4.10543        6.27096
O         10.49125       -4.22636        5.26279
C          8.14577       -4.75122        5.92389
N          7.13728       -4.00847        5.14062
C          5.90966       -4.63198        4.93669
O          5.63486       -5.81043        5.17099
N          4.92124       -3.84120        4.40743
C          5.11318       -2.64090        3.80162
O          4.29091       -2.18095        3.01538
C          6.41419       -2.01116        4.04712
C          7.36222       -2.73018        4.65764
H          8.30757       -5.70311        5.40081
H          9.38277       -3.03349        6.43607
H         10.54653       -4.13310        8.19947
H          8.42306       -5.87275        8.82081
H          8.55007       -4.00275       10.17478
H          7.06966       -3.64134        9.23822
H          4.05222       -4.29991        4.21405
H          6.57253       -0.99906        3.69768
H          8.34420       -2.29043        4.80247
H         11.37449       -4.19574        5.71850
P         11.91701       -6.21799        7.04114
O         12.60549       -7.27448        7.86481
O         12.50430       -4.85658        6.77511
O         11.47257       -6.83217        5.62693
C         10.95722       -8.13922        5.58536
C         11.33724       -8.72576        4.23961
O         10.40175       -8.28299        3.22726
C         12.72704       -8.27885        3.81651
O         13.27782       -9.37674        3.11217
C         12.43652       -7.01822        2.99834
O         13.42255       -6.66388        2.04542
C         11.05240       -7.29845        2.38343
N         10.13670       -6.16946        2.23219
C         10.39303       -4.85128        2.51846
N          9.38614       -4.05324        2.21974
C          8.42351       -4.89258        1.72538
C          7.15223       -4.60874        1.19471
N          6.66236       -3.30790        1.10734
N          6.42779       -5.61943        0.67379
C          7.00536       -6.84313        0.65398
N          8.20128       -7.24044        1.13786
C          8.87248       -6.20409        1.67566
H         11.15926       -7.72814        1.37909
H         12.39257       -6.16604        3.67719
H         13.38071       -8.07078        4.67134
H         11.24485       -9.81604        4.28774
H         11.39539       -8.75001        6.37885
H          9.87206       -8.10098        5.71315
H          6.42564       -7.61311        0.15601
H         11.33273       -4.50802        2.93474
H          5.65815       -3.24533        1.22613
H          7.20537       -2.67292        1.69007
H         14.30161       -6.84829        2.46469
P         14.84090       -9.27560        2.72134
O         15.46046      -10.64268        2.86234
O         15.42938       -8.02969        3.32781
O         14.59420       -8.95464        1.17413
C         14.01542       -9.92495        0.34252
C         14.39647       -9.58799       -1.08707
O         13.43520       -8.67524       -1.66016
C         15.76112       -8.92959       -1.16598
O         16.31898       -9.39981       -2.38158
C         15.40055       -7.44281       -1.10104
O         16.42869       -6.59120       -1.56561
C         14.06084       -7.37891       -1.87581
N         13.04204       -6.36674       -1.53895
C         11.85832       -6.35038       -2.29172
O         11.68212       -7.08561       -3.26517
N         10.84254       -5.48098       -1.93215
C         11.05109       -4.61002       -0.99314
N         10.02277       -3.75672       -0.68023
C         12.32327       -4.51005       -0.26067
C         13.26052       -5.39779       -0.58507
H         14.26157       -7.27912       -2.95060
H         15.24377       -7.16139       -0.05912
H         16.44174       -9.22597       -0.36048
H         14.33509      -10.49995       -1.69013
H         14.41639      -10.90868        0.59816
H         12.92997       -9.92273        0.47725
H         12.47518       -3.73477        0.47623
H         14.22775       -5.34805       -0.09782
H          9.11808       -4.13352       -0.93263
H         10.02704       -3.41907        0.28420
H         17.29539       -7.00911       -1.32402
P         17.83531       -8.98154       -2.73507
O         18.50917      -10.16798       -3.37850
O         18.43610       -8.22682       -1.57769
O         17.43385       -7.90917       -3.86702
C         16.85801       -8.39074       -5.05966
C         17.21432       -7.42985       -6.18068
O         16.25978       -6.33850       -6.21691
C         18.60593       -6.84412       -5.99515
O         19.16466       -6.72680       -7.29316
C         18.31379       -5.54080       -5.25231
O         19.25009       -4.49929       -5.45531
C         16.89134       -5.14136       -5.70163
N         16.00480       -4.54881       -4.69723
C         16.25131       -4.48102       -3.34698
N         15.25800       -3.96483       -2.65868
C         14.35701       -3.60793       -3.60336
C         13.12716       -2.87979       -3.43202
O         12.66114       -2.44426       -2.38321
N         12.52540       -2.58743       -4.63530
C         13.14986       -2.74240       -5.84995
N         12.55256       -2.06844       -6.87250
N         14.26195       -3.40478       -6.04308
C         14.81513       -3.86512       -4.88404
H         16.94495       -4.41048       -6.51801
H         18.35349       -5.76094       -4.18546
H         19.25975       -7.50384       -5.41276
H         17.11537       -7.95432       -7.13750
H         17.26129       -9.37823       -5.30029
H         15.77430       -8.46659       -4.93340
H         11.66648       -2.07824       -4.53454
H         17.17056       -4.81723       -2.88969
H         12.11960       -1.20629       -6.56482
H         13.23685       -1.90305       -7.60396
H         20.13512       -4.91659       -5.55723
P         20.75100       -6.42632       -7.39611
O         21.29999       -7.09796       -8.62905
O         21.38619       -6.53931       -6.03960
O         20.59968       -4.85439       -7.67741
C         19.95873       -4.45559       -8.86318
C         20.31041       -3.00853       -9.13440
O         19.33638       -2.13275       -8.53400
C         21.67324       -2.63925       -8.58373
O         22.21598       -1.76348       -9.55435
C         21.32128       -2.04330       -7.21615
O         22.31684       -1.19809       -6.66652
C         19.95948       -1.36184       -7.47413
N         18.95045       -1.25904       -6.40198
C         17.72311       -0.69344       -6.74169
O         17.45485       -0.10607       -7.79195
N         16.73490       -0.80360       -5.79695
C         16.92406       -1.13695       -4.49399
O         16.10201       -0.84690       -3.63206
C         18.22203       -1.74069       -4.17847
C         19.17196       -1.73228       -5.11951
H         20.11825       -0.34282       -7.85106
H         21.20660       -2.86572       -6.50790
H         22.36036       -3.48764       -8.49723
H         20.23296       -2.83401      -10.21292
H         20.33139       -5.06767       -9.68758
H         18.87748       -4.58995       -8.76481
H         15.86545       -0.35260       -6.00937
H         18.37435       -2.13942       -3.18353
H         20.15167       -2.13238       -4.87907
H         23.19640       -1.57041       -6.93946
P         23.72944       -1.25855       -9.34072
O         24.39972       -1.18410      -10.68868
O         24.33340       -1.96031       -8.15275
O         23.30709        0.21376       -8.86258
C         22.76371        1.10382       -9.80510
C         23.14541        2.50617       -9.37132
O         22.21120        2.98535       -8.37558
C         24.53538        2.53902       -8.75779
O         25.08406        3.79035       -9.13119
C         24.24685        2.33733       -7.26847
O         25.23503        2.83533       -6.38398
C         22.85937        2.98010       -7.07754
N         21.94599        2.34987       -6.12724
C         22.20627        1.27116       -5.31944
N         21.19998        0.96852       -4.52337
C         20.23453        1.89102       -4.83026
C         18.96492        2.10536       -4.26556
N         18.47845        1.32294       -3.22501
N         18.24226        3.16219       -4.68664
C         18.81575        3.98102       -5.59705
N         20.01071        3.87612       -6.21807
C         20.68129        2.79004       -5.78805
H         22.96145        4.02066       -6.74367
H         24.20757        1.26668       -7.06460
H         25.19062        1.75646       -9.15704
H         23.05113        3.18072      -10.22896
H         23.18012        0.91026      -10.79692
H         21.67811        0.97622       -9.83558
H         18.23345        4.86167       -5.84724
H         23.14781        0.73565       -5.33012
H         17.46944        1.22367       -3.21330
H         19.00289        0.45847       -3.11642
H         26.11328        2.63886       -6.79727
P         26.65005        4.02192       -8.81407
O         27.25416        4.81932       -9.94193
O         27.24950        2.74710       -8.28360
O         26.41936        4.97458       -7.55030
C         25.81523        6.22927       -7.72263
C         26.19554        7.09106       -6.53304
O         25.23702        6.92739       -5.46673
C         27.56025        6.72496       -5.98281
O         28.11030        7.95319       -5.53745
C         27.20433        5.70114       -4.90204
O         28.23577        5.49945       -3.95631
C         25.86461        6.24339       -4.34538
N         24.84794        5.32606       -3.80140
C         23.66345        5.88592       -3.29762
O         23.49229        7.10414       -3.21890
N         22.64808        5.04633       -2.87625
C         22.85480        3.76605       -2.83381
N         21.82901        2.97116       -2.39124
C         24.12602        3.14532       -3.23827
C         25.06537        3.97074       -3.69393
H         26.06539        6.99110       -3.56677
H         27.04942        4.72894       -5.37133
H         28.24466        6.31507       -6.73344
H         26.13174        8.14339       -6.82931
H         26.19789        6.69115       -8.63591
H         24.73058        6.10892       -7.79715
H         24.27478        2.08055       -3.13248
H         26.03283        3.56939       -3.97277
H         20.92100        3.40976       -2.48610
H         21.82167        2.02053       -2.76485
H         29.10133        5.59562       -4.43147
P         29.62874        7.95267       -4.99739
O         30.29457        9.21969       -5.47429
O         30.23783        6.58844       -5.19135
O         29.23744        8.10205       -3.44314
C         28.66209        9.31696       -3.02116
C         29.03319        9.53707       -1.56510
O         28.08171        8.85560       -0.70862
C         30.42574        9.00969       -1.24982
O         30.98902        9.91719       -0.31757
C         30.12956        7.59643       -0.74763
O         31.06198        7.06012        0.17154
C         28.70854        7.67709       -0.14751
N         27.81890        6.53164       -0.35956
C         28.06896        5.46736       -1.19265
N         27.07900        4.60647       -1.25519
C         26.17472        5.08421       -0.36799
C         24.94449        4.47413        0.06492
O         24.49039        3.39241       -0.29496
N         24.33459        5.19291        1.06785
C         24.95272        6.21454        1.74981
N         24.34180        6.54976        2.92031
N         26.06924        6.79324        1.38373
C         26.62887        6.22109        0.27848
H         28.76474        7.81053        0.93993
H         30.16473        6.93616       -1.61429
H         31.07633        8.99714       -2.13215
H         28.93853       10.60446       -1.33688
H         29.05501       10.14708       -3.61457
H         27.57709        9.26665       -3.15008
H         23.47138        4.78480        1.37984
H         28.98849        5.34285       -1.74536
H         23.86983        5.76735        3.35739
H         25.01328        6.98394        3.54432
H         31.94367        7.43660       -0.04427
P         32.57305        9.79857       -0.01353
O         33.11620       11.16978        0.29803
O         33.21857        8.85394       -0.98659
O         32.40851        8.97485        1.35384
C         31.76422        9.61003        2.43079
C         32.11404        8.87138        3.70519
O         31.14122        7.84368        3.97483
C         33.47794        8.21574        3.62790
O         34.02045        8.37762        4.92532
C         33.12934        6.79082        3.18464
O         34.12577        5.82346        3.46601
C         31.76615        6.53849        3.86560
N         30.76051        5.66007        3.23754
C         29.52941        5.54511        3.88222
O         29.25963        5.95446        5.01336
N         28.54481        4.90225        3.17527
C         28.74433        4.13389        2.07319
O         27.93241        3.28404        1.72561
C         30.04310        4.29495        1.41449
C         30.98880        5.00126        2.04154
H         31.92217        6.15640        4.88310
H         33.01738        6.79309        2.09910
H         34.16461        8.70624        2.92981
H         32.03438        9.57453        4.54121
H         32.13506       10.63457        2.50777
H         30.68328        9.62254        2.26261
H         27.67197        4.76510        3.64994
H         30.19852        3.80485        0.46188
H         31.96987        5.08273        1.58540
H         35.00428        6.27479        3.36201
P         35.53470        7.88823        5.16489
O         36.20624        8.85813        6.10291
O         36.13786        7.45246        3.85517
O         35.11981        6.55996        5.96340
C         34.57282        6.68465        7.25220
C         34.95756        5.43855        8.02703
O         34.02314        4.37174        7.73971
C         36.34752        4.95434        7.64705
O         36.90242        4.42190        8.83671
C         36.05636        3.95906        6.52082
O         37.04533        2.96568        6.31447
C         34.66893        3.39367        6.88460
N         33.75105        3.08767        5.78875
C         34.00969        3.18233        4.44401
N         33.00317        2.77776        3.69520
C         32.03595        2.40948        4.59428
C         30.76344        1.84539        4.38817
N         30.27520        1.56797        3.11687
N         30.04011        1.47601        5.46360
C         30.61406        1.62920        6.67802
N         31.81213        2.16321        7.00377
C         32.48427        2.54589        5.90074
H         34.77163        2.46012        7.45250
H         36.01347        4.50599        5.57825
H         37.00119        5.76811        7.31301
H         34.86572        5.64512        9.09864
H         34.98531        7.56193        7.75725
H         33.48707        6.78776        7.17368
H         30.03059        1.24529        7.50830
H         34.95078        3.54058        4.04505
H         29.26553        1.62221        3.03686
H         30.79421        2.05176        2.38909
H         37.92394        3.40598        6.43717
P         38.46673        4.02473        8.79885
O         39.08000        4.35388       10.13601
O         39.06456        4.45374        7.48524
O         38.22889        2.44673        8.69428
C         37.62541        1.75779        9.75759
C         38.00803        0.29437        9.63317
O         37.04932       -0.40723        8.81383
C         39.37280        0.11956        8.99490
O         39.93023       -1.01472        9.63703
C         39.01446       -0.03200        7.51389
O         40.04407       -0.61515        6.73968
C         37.67486       -0.80757        7.56204
N         36.65662       -0.61867        6.51355
C         35.47194       -1.36652        6.60836
O         35.30288       -2.22400        7.47761
N         34.45557       -1.13595        5.69866
C         34.66026       -0.32863        4.70363
N         33.63325       -0.14427        3.81418
C         35.93056        0.38499        4.49845
C         36.87152        0.18856        5.41900
H         37.87554       -1.88559        7.61779
H         38.85821        0.95850        7.08507
H         40.05437        0.95857        9.17196
H         37.94571       -0.16875       10.62358
H         38.00703        2.14863       10.70390
H         36.54057        1.89156        9.71467
H         36.07727        1.00343        3.62490
H         37.83827        0.66311        5.29706
H         32.72665       -0.36529        4.20793
H         33.61897        0.76205        3.34334
H         40.91034       -0.31856        7.12131
P         41.44443       -1.42632        9.27154
O         42.12409       -1.89482       10.53403
O         42.04896       -0.38922        8.36059
O         41.04315       -2.69892        8.37166
C         40.46917       -3.81225        9.01709
C         40.84126       -5.05859        8.23201
O         39.88478       -5.26363        7.16034
C         42.23252       -4.94926        7.62082
O         42.80198       -6.24517        7.69453
C         41.92621       -4.40481        6.22493
O         42.84930       -4.73814        5.20569
C         40.50474       -4.91682        5.89947
N         39.61229       -4.00943        5.17090
C         39.86736       -2.68474        4.90444
N         38.88074       -2.07353        4.29045
C         37.97157       -3.05432        4.07811
C         36.74005       -2.97861        3.33566
O         36.29459       -1.99819        2.74742
N         36.12177       -4.20378        3.23021
C         36.73319       -5.39034        3.56048
N         36.11567       -6.49318        3.05241
N         37.85149       -5.49578        4.23542
C         38.42016       -4.28751        4.52004
H         40.56303       -5.82667        5.28925
H         41.95625       -3.31760        6.29823
H         42.88340       -4.27173        8.18596
H         40.75098       -5.92893        8.89123
H         40.86229       -3.90386       10.03327
H         39.38406       -3.68236        9.06325
H         35.25780       -4.17046        2.71879
H         40.78849       -2.18667        5.16933
H         35.64722       -6.31336        2.17251
H         36.78131       -7.25456        2.97754
H         43.71959       -4.90416        5.62692
P         44.38565       -6.39625        7.40587
O         44.93287       -7.53155        8.23226
O         45.03342       -5.04381        7.32763
O         44.21484       -6.88557        5.88589
C         43.58120       -8.12325        5.66509
C         43.93342       -8.60552        4.27351
O         42.95709       -8.14016        3.32143
C         45.29554       -8.11210        3.82739
O         45.84712       -9.19288        3.09839
C         44.93890       -6.84584        3.04142
O         45.93194       -6.41705        2.12605
C         43.57639       -7.20087        2.40627
N         42.56885       -6.15254        2.15446
C         41.33856       -6.56608        1.64439
O         41.07521       -7.68744        1.20549
N         40.35065       -5.61380        1.62680
C         40.54993       -4.27706        1.76237
O         39.74459       -3.45749        1.33595
C         41.84638       -3.88280        2.31902
C         42.79378       -4.81734        2.44186
H         43.73318       -7.71900        1.45108
H         44.82387       -6.02862        3.75520
H         45.98112       -7.90190        4.65522
H         43.85809       -9.69817        4.25901
H         43.95784       -8.84752        6.39088
H         42.49932       -8.01291        5.78570
H         39.48001       -5.88337        1.20769
H         41.99866       -2.84231        2.57594
H         43.77257       -4.52406        2.80615
H         46.81139       -6.63447        2.53324
P         47.35695       -9.04191        2.56276
O         48.04508      -10.37731        2.67988
O         47.95420       -7.75774        3.07781
O         46.93209       -8.78610        1.03660
C         46.39677       -9.85051        0.29019
C         46.78819       -9.62446       -1.15946
O         45.84685       -8.71645       -1.78063
C         48.17427       -9.00663       -1.27681
O         48.73957       -9.52881       -2.46792
C         47.86762       -7.50704       -1.28197
O         48.85332       -6.68958       -1.89105
C         46.47916       -7.42272       -1.94948
N         45.55336       -6.40208       -1.45974
C         45.81149       -5.44505       -0.50992
N         44.80836       -4.60927       -0.33223
C         43.83862       -5.05349       -1.19384
C         42.56638       -4.52834       -1.48584
N         42.07735       -3.38452       -0.86492
N         41.84460       -5.09952       -2.46984
C         42.41589       -6.12175       -3.14533
N         43.61474       -6.71676       -2.95473
C         44.28661       -6.13276       -1.94349
H         46.58247       -7.23352       -3.02554
H         47.82162       -7.15816       -0.25006
H         48.83160       -9.28819       -0.44620
H         46.70545      -10.57170       -1.70261
H         46.81167      -10.80258        0.63083
H         45.31015       -9.86401        0.41437
H         41.82984       -6.50144       -3.97598
H         46.75064       -5.37912        0.02515
H         41.06652       -3.36476       -0.77458
H         42.58619       -3.16101       -0.01404
H         49.73184       -7.07190       -1.63769
P         50.30280       -9.22266       -2.73554
O         50.94185      -10.43968       -3.35348
O         50.88780       -8.48941       -1.55657
O         50.06822       -8.11868       -3.87028
C         49.49068       -8.47908       -5.09727
C         49.87575       -7.41738       -6.11720
O         48.90116       -6.35003       -6.10765
C         51.22950       -6.79387       -5.81978
O         51.78700       -6.44299       -7.08082
C         50.84375       -5.60714       -4.93433
O         51.86291       -4.62788       -4.84910
C         49.50461       -5.14456       -5.56070
N         48.47462       -4.49109       -4.73511
C         47.29886       -4.06241       -5.37130
O         47.15150       -4.13307       -6.59339
N         46.27521       -3.53171       -4.60815
C         46.46157       -3.32818       -3.34015
N         45.42743       -2.78453       -2.62288
C         47.72296       -3.65102       -2.65551
C         48.67173       -4.21164       -3.40156
H         49.70951       -4.46763       -6.40046
H         50.68700       -5.95176       -3.91215
H         51.92664       -7.47969       -5.32619
H         49.82907       -7.85758       -7.11853
H         49.88661       -9.44687       -5.41430
H         48.40431       -8.54748       -4.98357
H         47.85396       -3.41563       -1.60927
H         49.62919       -4.44451       -2.95099
H         44.52402       -2.93953       -3.05558
H         45.40027       -3.03811       -1.63296
H         52.73066       -5.10823       -4.87327
P         53.31902       -5.93639       -7.12414
O         54.01425       -6.58662       -8.29412
O         53.90632       -5.93201       -5.73535
O         52.99142       -4.40257       -7.49945
C         52.49079       -4.12178       -8.78600
C         52.87131       -2.68645       -9.14476
O         51.84856       -1.79418       -8.61996
C         54.22546       -2.26330       -8.55593
O         54.86170       -1.35108       -9.44840
C         53.80257       -1.63929       -7.22714
O         54.64918       -0.62526       -6.70718
C         52.37593       -1.09920       -7.47087
N         51.43950       -1.19507       -6.34609
C         51.67858       -1.89098       -5.18421
N         50.70031       -1.81578       -4.31424
C         49.79841       -1.00374       -4.91239
C         48.55822       -0.50931       -4.35760
O         48.12409       -0.71448       -3.24805
N         47.93954        0.37641       -5.22341
C         48.53373        0.89571       -6.34920
N         47.86257        1.94705       -6.89515
N         49.67590        0.48768       -6.85190
C         50.25273       -0.51421       -6.12307
H         52.41884       -0.03257       -7.72386
H         53.82339       -2.44040       -6.49017
H         54.89328       -3.12205       -8.42396
H         52.84498       -2.57604      -10.23425
H         52.92903       -4.80313       -9.52015
H         51.40400       -4.25650       -8.78138
H         47.06383        0.71692       -4.86664
H         52.58334       -2.44700       -4.99047
H         47.26911        2.45605       -6.25258
H         48.46994        2.53856       -7.44665