771
	Energy:     452.2431115
H        -27.89976        9.66641       -0.90024
O        -27.51780       10.49150       -0.55052
P        -25.97757       10.04569       -0.38981
O        -25.11461       11.26623       -0.48700
O        -25.88257        8.87504       -1.32568
O        -26.07361        9.49117        1.11628
C        -26.21690       10.41869        2.17152
C        -25.85476        9.75458        3.49472
O        -26.82213        8.73004        3.82316
C        -24.49392        9.08785        3.45562
O        -23.99957        9.18225        4.78049
C        -24.81970        7.67314        2.98062
O        -23.90085        6.65968        3.34899
C        -26.23991        7.43354        3.52634
N        -27.19336        6.75202        2.65508
C        -27.14624        6.61677        1.28717
N        -28.24136        6.07322        0.78952
C        -29.03459        5.84500        1.88136
C        -30.31212        5.27034        1.98567
N        -31.04628        4.87536        0.86227
N        -30.81926        5.03185        3.21450
C        -30.08096        5.42581        4.28070
N        -28.88114        6.03700        4.29829
C        -28.39772        6.21086        3.05586
H        -26.19995        6.85242        4.45759
H        -24.79771        7.66833        1.89220
H        -23.79866        9.60377        2.78487
H        -25.91289       10.50373        4.29317
H        -25.56063       11.27881        2.01191
H        -27.25761       10.75309        2.20082
H        -30.51131        5.20942        5.25433
H        -26.30685        6.94332        0.68376
H        -31.58450        4.04715        1.07137
H        -30.43252        4.83059        0.05039
H        -22.99400        7.06728        3.33085
P        -22.45570        8.76987        5.01021
O        -21.81416        9.80773        5.89020
O        -21.88606        8.33342        3.68356
O        -22.76772        7.44049        5.84574
C        -23.21733        7.52324        7.17415
C        -22.84094        6.22828        7.87795
O        -23.80034        5.19099        7.57016
C        -21.47479        5.73213        7.44402
O        -20.92795        5.11347        8.59491
C        -21.82887        4.80477        6.28133
O        -20.80790        3.89552        5.92823
C        -23.17253        4.17845        6.73200
N        -24.18537        3.79830        5.72594
C        -25.38832        3.23546        6.17405
O        -25.57641        2.90819        7.34626
N        -26.42267        3.05787        5.26585
C        -26.19951        3.26170        4.00472
N        -27.26164        3.11040        3.14449
C        -24.89299        3.66890        3.47182
C        -23.94815        3.91883        4.37532
H        -22.98651        3.29349        7.35476
H        -21.97764        5.41122        5.38860
H        -20.79469        6.53656        7.14376
H        -22.90361        6.38354        8.96056
H        -22.72905        8.35832        7.68280
H        -24.30037        7.67249        7.17676
H        -24.72506        3.76306        2.41024
H        -22.96108        4.21764        4.04126
H        -28.13603        3.24533        3.63655
H        -27.19301        3.66413        2.29762
H        -19.93627        4.33420        6.11478
P        -19.41262        4.56779        8.51181
O        -18.73053        4.89278        9.81481
O        -18.82782        4.92311        7.16854
O        -19.81718        3.00957        8.47914
C        -20.34068        2.43566        9.65610
C        -19.99951        0.95503        9.65486
O        -20.95890        0.22672        8.84603
C        -18.61072        0.71154        9.08768
O        -18.05097       -0.35218        9.83773
C        -18.90128        0.42580        7.61554
O        -17.95500       -0.39366        6.95607
C        -20.32192       -0.17947        7.60922
N        -21.20897        0.18529        6.50006
C        -20.97241        1.16526        5.56548
N        -21.97642        1.35298        4.73554
C        -22.87419        0.40515        5.09180
C        -24.11854        0.06763        4.44978
O        -24.63861        0.62217        3.48354
N        -24.68480       -1.06958        4.98332
C        -24.05564       -1.87905        5.89922
N        -24.64856       -3.09334        6.06972
N        -22.94737       -1.58128        6.52458
C        -22.40082       -0.40254        6.11168
H        -20.26898       -1.27530        7.60035
H        -18.86720        1.37768        7.08680
H        -17.95688        1.58305        9.20960
H        -20.09942        0.56847       10.67526
H        -19.88903        2.90004       10.53712
H        -21.42271        2.59061        9.68085
H        -25.55306       -1.33006        4.55589
H        -20.05250        1.73058        5.51884
H        -25.03451       -3.46145        5.21015
H        -23.97244       -3.73405        6.47691
H        -17.06677       -0.14475        7.30713
P        -16.46672       -0.62233        9.64962
O        -15.88858       -1.07671       10.96432
O        -15.86395        0.46349        8.80213
O        -16.63157       -1.88540        8.67851
C        -17.24490       -3.04439        9.17977
C        -16.89765       -4.19144        8.25437
O        -17.87582       -4.30018        7.19917
C        -15.53513       -4.00760        7.61307
O        -14.98625       -5.31064        7.58265
C        -15.89282       -3.35840        6.27085
O        -14.90554       -3.47928        5.26257
C        -17.25066       -4.00426        5.92376
N        -18.25916       -3.26148        5.14057
C        -19.48682       -3.88501        4.93670
O        -19.76194       -5.06337        5.17128
N        -20.47519       -3.09414        4.40745
C        -20.28329       -1.89377        3.80175
O        -21.10561       -1.43376        3.01560
C        -18.98225       -1.26407        4.04719
C        -18.03419       -1.98316        4.65759
H        -17.08877       -4.95607        5.40054
H        -16.01373       -2.28646        6.43596
H        -14.84990       -3.38590        8.19931
H        -16.97315       -5.12584        8.82067
H        -16.84641       -3.25583       10.17460
H        -18.32684       -2.89458        9.23800
H        -21.34423       -3.55282        4.21411
H        -18.82392       -0.25194        3.69781
H        -17.05219       -1.54342        4.80235
H        -14.02255       -3.44846        5.71849
P        -13.47919       -5.47074        7.04090
O        -12.79052       -6.52720        7.86447
O        -12.89206       -4.10929        6.77479
O        -13.92381       -6.08497        5.62677
C        -14.43898       -7.39208        5.58532
C        -14.05904       -7.97872        4.23963
O        -14.99459       -7.53607        3.22728
C        -12.66927       -7.53177        3.81649
O        -12.11841       -8.62976        3.11238
C        -12.95984       -6.27123        2.99821
O        -11.97380       -5.91686        2.04529
C        -14.34404       -6.55150        2.38339
N        -15.25981       -5.42253        2.23223
C        -15.00347       -4.10436        2.51852
N        -16.01037       -3.30630        2.21989
C        -16.97300       -4.14561        1.72550
C        -18.24426       -3.86170        1.19482
N        -18.73410       -2.56084        1.10753
N        -18.96870       -4.87233        0.67380
C        -18.39117       -6.09604        0.65393
N        -17.19527       -6.49343        1.13785
C        -16.52405       -5.45713        1.67572
H        -14.23726       -6.98118        1.37905
H        -13.00383       -5.41901        3.67702
H        -12.01564       -7.32354        4.67131
H        -14.15140       -9.06900        4.28785
H        -14.00083       -8.00279        6.37888
H        -15.52415       -7.35392        5.71313
H        -18.97088       -6.86596        0.15586
H        -14.06375       -3.76111        2.93477
H        -19.73830       -2.49825        1.22633
H        -18.19107       -1.92591        1.69029
H        -11.09457       -6.10084        2.46453
P        -10.55544       -8.52841        2.72121
O         -9.93564       -9.89540        2.86210
O         -9.96700       -7.28242        3.32755
O        -10.80257       -8.20757        1.17406
C        -11.38146       -9.17795        0.34262
C        -11.00078       -8.84103       -1.08705
O        -11.96203       -7.92817       -1.66001
C         -9.63623       -8.18273       -1.16629
O         -9.07913       -8.65275       -2.38234
C         -9.99659       -6.69589       -1.10104
O         -8.96864       -5.84405       -1.56558
C        -11.33623       -6.63191       -1.87576
N        -12.35480       -5.61963       -1.53891
C        -13.53851       -5.60319       -2.29166
O        -13.71474       -6.33837       -3.26515
N        -14.55423       -4.73380       -1.93200
C        -14.34558       -3.86288       -0.99297
N        -15.37387       -3.00959       -0.67998
C        -13.07336       -3.76295       -0.26055
C        -12.13618       -4.65070       -0.58504
H        -11.13546       -6.53219       -2.95056
H        -10.15323       -6.41459       -0.05908
H         -8.95535       -8.47937       -0.36109
H        -11.06231       -9.75300       -1.69009
H        -10.98031      -10.16163        0.59820
H        -12.46688       -9.17583        0.47756
H        -12.92138       -2.98772        0.47637
H        -11.16889       -4.60102       -0.09788
H        -16.27856       -3.38643       -0.93232
H        -15.36953       -2.67199        0.28446
H         -8.10187       -6.26213       -1.32433
P         -7.56286       -8.23450       -2.73549
O         -6.88831       -9.42095       -3.37811
O         -6.96331       -7.47919       -1.57792
O         -7.96372       -7.16235       -3.86779
C         -8.53908       -7.64422       -5.06047
C         -8.18277       -6.68338       -6.18152
O         -9.13763       -5.59223       -6.21803
C         -6.79122       -6.09744       -5.99577
O         -6.23213       -5.98011       -7.29363
C         -7.08358       -4.79417       -5.25301
O         -6.14760       -3.75236       -5.45600
C         -8.50613       -4.39503       -5.70235
N         -9.39254       -3.80254       -4.69775
C         -9.14569       -3.73456       -3.34755
N        -10.13883       -3.21823       -2.65910
C        -11.03994       -2.86127       -3.60362
C        -12.26965       -2.13290       -3.43211
O        -12.73545       -1.69738       -2.38320
N        -12.87153       -1.84033       -4.63531
C        -12.24710       -1.99531       -5.85000
N        -12.84425       -1.32103       -6.87242
N        -11.13519       -2.65792       -6.04329
C        -10.58203       -3.11852       -4.88436
H         -8.45258       -3.66401       -6.51860
H         -7.04376       -5.01429       -4.18616
H         -6.13744       -6.75706       -5.41321
H         -8.28141       -7.20798       -7.13828
H         -8.13542       -8.63163       -5.30079
H         -9.62277       -7.72033       -4.93438
H        -13.73052       -1.33112       -4.53460
H         -8.22635       -4.07069       -2.89037
H        -13.27718       -0.45894       -6.56453
H        -12.15984       -1.15544       -7.60372
H         -5.26243       -4.16937       -5.55790
P         -4.64579       -5.67936       -7.39608
O         -4.09627       -6.35087       -8.62884
O         -4.01102       -5.79227       -6.03937
O         -4.79729       -4.10745       -7.67740
C         -5.43813       -3.70874       -8.86328
C         -5.08671       -2.26161       -9.13445
O         -6.06094       -1.38601       -8.53404
C         -3.72400       -1.89223       -8.58364
O         -3.18118       -1.01636       -9.55411
C         -4.07637       -1.29633       -7.21622
O         -3.08150       -0.45059       -6.66643
C         -5.43794       -0.61499       -7.47425
N         -6.44670       -0.51215       -6.40196
C         -7.67407        0.05332       -6.74158
O         -7.94242        0.64064       -7.79185
N         -8.66217       -0.05692       -5.79679
C         -8.47292       -0.39033       -4.49386
O         -9.29498       -0.10040       -3.63190
C         -7.17484       -0.99386       -4.17838
C         -6.22496       -0.98525       -5.11946
H         -5.27910        0.40404       -7.85120
H         -4.19075       -2.11875       -6.50793
H         -3.03680       -2.74056       -8.49708
H         -5.16410       -2.08702      -10.21296
H         -5.06518       -4.32074       -9.68761
H         -6.51936       -3.84329       -8.76508
H         -9.53167        0.39401       -6.00916
H         -7.02240       -1.39253       -3.18343
H         -5.24511       -1.38505       -4.87901
H         -2.20165       -0.82274       -6.93879
P         -1.66765       -0.51159       -9.34030
O         -0.99699       -0.43741      -10.68824
O         -1.06413       -1.21315       -8.15195
O         -2.09002        0.96082       -8.86241
C         -2.63324        1.85069       -9.80519
C         -2.25214        3.25315       -9.37135
O         -3.18634        3.73198       -8.37550
C         -0.86229        3.28645       -8.75787
O         -0.31430        4.53829       -9.13079
C         -1.15050        3.08438       -7.26854
O         -0.16245        3.58257       -6.38400
C         -2.53792        3.72697       -7.07754
N         -3.45098        3.09672       -6.12705
C         -3.19053        2.01810       -5.31921
N         -4.19676        1.71535       -4.52312
C         -5.16235        2.63777       -4.83012
C         -6.43198        2.85209       -4.26552
N         -6.91848        2.06963       -3.22502
N         -7.15461        3.90898       -4.68655
C         -6.58106        4.72790       -5.59684
N         -5.38611        4.62300       -6.21781
C         -4.71562        3.53686       -5.78783
H         -2.43587        4.76759       -6.74383
H         -1.18948        2.01370       -7.06474
H         -0.20681        2.50423       -9.15742
H         -2.34656        3.92769      -10.22898
H         -2.21630        1.65714      -10.79681
H         -3.71878        1.72283       -9.83613
H         -7.16329        5.60862       -5.84696
H         -2.24893        1.48269       -5.32988
H         -7.92747        1.97025       -3.21344
H         -6.39396        1.20520       -3.11644
H          0.71575        3.38650       -6.79763
P          1.25184        4.76912       -8.81412
O          1.85627        5.56615       -9.94204
O          1.84992        3.49372       -8.28374
O          1.02236        5.72156       -7.55003
C          0.41864        6.97642       -7.72183
C          0.80004        7.83767       -6.53228
O         -0.15840        7.67464       -5.46587
C          2.16488        7.47082       -5.98238
O          2.71547        8.69909       -5.53810
C          1.80865        6.44756       -4.90112
O          2.84061        6.24607       -3.95563
C          0.46861        6.99004       -4.34461
N         -0.54890        6.07292       -3.80137
C         -1.73384        6.63294       -3.29841
O         -1.90492        7.85120       -3.21997
N         -2.74971        5.79355       -2.87746
C         -2.54285        4.51330       -2.83436
N         -3.56860        3.71845       -2.39161
C         -1.27142        3.89245       -3.23815
C         -0.33172        4.71760       -3.69361
H          0.66925        7.73741       -3.56566
H          1.65348        5.47526       -5.37017
H          2.84893        7.06032       -6.73297
H          0.73666        8.89003       -6.82850
H          0.80093        7.43832       -8.63525
H         -0.66610        6.85644       -7.79580
H         -1.12281        2.82769       -3.13204
H          0.63586        4.31604       -3.97191
H         -4.47671        4.15678       -2.48666
H         -3.57565        2.76758       -2.76463
H          3.70607        6.34296       -4.43079
P          4.23350        8.70010       -4.99669
O          4.89756        9.96800       -5.47379
O          4.84422        7.33648       -5.18984
O          3.83970        8.84990       -3.44300
C          3.25964       10.06357       -3.02321
C          3.62406       10.28525       -1.56561
O          2.67225        9.60133       -0.71189
C          5.01620        9.76137       -1.24584
O          5.57480       10.66760       -0.30913
C          4.72331        8.34710       -0.74530
O          5.65641        7.81507        0.17584
C          3.30160        8.42560       -0.14748
N          2.41514        7.27801       -0.35869
C          2.66669        6.21400       -1.19151
N          1.67754        5.35211       -1.25395
C          0.77261        5.82916       -0.36678
C         -0.45738        5.21864        0.06627
O         -0.91105        4.13679       -0.29374
N         -1.06774        5.93728        1.06923
C         -0.45022        6.95971        1.75064
N         -1.06097        7.29538        2.92105
N          0.66583        7.53897        1.38421
C          1.22569        6.96650        0.27938
H          3.35629        8.56135        0.93975
H          4.76196        7.68615       -1.61133
H          5.66898        9.75170       -2.12658
H          3.52645       11.35246       -1.33806
H          3.65347       10.89429       -3.61520
H          2.17532       10.01094       -3.15646
H         -1.93066        5.52886        1.38146
H          3.58659        6.09057       -1.74390
H         -1.53156        6.51269        3.35906
H         -0.38954        7.73083        3.54425
H          6.53835        8.18715       -0.04696
P          7.16110       10.55405       -0.01381
O          7.70401       11.92625        0.29372
O          7.80162        9.61069       -0.99112
O          7.01020        9.72965        1.35462
C          6.36660       10.36100        2.43397
C          6.71757        9.61898        3.70588
O          5.74470        8.59091        3.97365
C          8.08177        8.96359        3.62677
O          8.62406        9.12657        4.92416
C          7.73248        7.53905        3.18253
O          8.72852        6.57091        3.46203
C          6.36973        7.28601        3.86416
N          5.36414        6.40729        3.23664
C          4.13393        6.29172        3.88287
O          3.86540        6.70055        5.01453
N          3.14846        5.64934        3.17674
C          3.34613        4.88212        2.07358
O          2.53337        4.03304        1.72611
C          4.64441        5.04327        1.41361
C          5.59097        5.74929        2.03983
H          6.52646        6.90387        4.88153
H          7.61921        7.54269        2.09704
H          8.76828        9.45411        2.92862
H          6.63807       10.32013        4.54363
H          6.73708       11.38550        2.51324
H          5.28546       10.37327        2.26697
H          2.27617        5.51206        3.65239
H          4.79847        4.55344        0.46064
H          6.57150        5.83116        1.58258
H          9.60781        7.02157        3.36037
P         10.13642        8.63200        5.16814
O         10.80601        9.59955        6.11006
O         10.74220        8.19560        3.86004
O          9.71104        7.30533        5.96439
C          9.16580        7.43248        7.25369
C          9.54960        6.18690        8.02942
O          8.61657        5.11950        7.74080
C         10.93974        5.70261        7.65193
O         11.48871        5.16524        8.84211
C         10.65128        4.70895        6.52422
O         11.64049        3.71533        6.32179
C          9.26436        4.14259        6.88580
N          8.34875        3.83628        5.78858
C          8.60784        3.93200        4.44410
N          7.60135        3.52771        3.69487
C          6.63479        3.15662        4.59350
C          5.36320        2.59055        4.38760
N          4.87272        2.31460        3.11692
N          4.64213        2.21771        5.46329
C          5.21657        2.37026        6.67752
N          6.41305        2.90683        7.00310
C          7.08330        3.29210        5.89996
H          9.36752        3.20879        7.45329
H         10.61104        5.25565        5.58142
H         11.59466        6.51703        7.32193
H          9.45599        6.39373        9.10084
H          9.57952        8.30952        7.75791
H          8.08010        7.53673        7.17592
H          4.63429        1.98420        7.50773
H          9.54909        4.29081        4.04582
H          3.86277        2.36720        3.03925
H          5.38897        2.80036        2.38871
H         12.51838        4.15682        6.44469
P         13.05524        4.77600        8.81036
O         13.65861        5.10661       10.15183
O         13.65493        5.21069        7.49993
O         12.82682        3.19674        8.70238
C         12.22327        2.50446        9.76316
C         12.60586        1.04178        9.63547
O         11.64911        0.34222        8.81254
C         13.97132        0.86690        8.99944
O         14.52071       -0.27377        9.63702
C         13.61693        0.72078        7.51733
O         14.64875        0.13937        6.74480
C         12.27856       -0.05634        7.56176
N         11.26287        0.13189        6.51200
C         10.08081       -0.61891        6.60563
O          9.91340       -1.47803        7.47364
N          9.06325       -0.38852        5.69759
C          9.26528        0.42069        4.70360
N          8.23626        0.60505        3.81631
C         10.53460        1.13633        4.49831
C         11.47625        0.94093        5.41858
H         12.48066       -1.13416        7.61741
H         13.46095        1.71210        7.09031
H         14.65506        1.70292        9.18213
H         12.54154        0.57631       10.62464
H         12.60474        2.89268       10.71057
H         11.13840        2.63793        9.72050
H         10.67950        1.75566        3.62518
H         12.44229        1.41720        5.29758
H          7.33027        0.38349        4.21135
H          8.22161        1.51081        3.34449
H         15.51411        0.43328        7.13060
P         16.03797       -0.68458        9.28215
O         16.70332       -1.15554       10.55164
O         16.64853        0.35486        8.37855
O         15.64335       -1.95587        8.37693
C         15.06776       -3.07034        9.01876
C         15.43880       -4.31523        8.23196
O         14.48670       -4.51763        7.15677
C         16.83091       -4.20785        7.62614
O         17.39492       -5.50642        7.70196
C         16.53341       -3.66272        6.22911
O         17.46612       -4.00611        5.22216
C         15.11211       -4.17028        5.89786
N         14.22035       -3.26138        5.17121
C         14.46984       -1.93444        4.91305
N         13.47922       -1.32342        4.30474
C         12.57443       -2.30663        4.08544
C         11.34353       -2.23286        3.34139
O         10.89643       -1.25239        2.75448
N         10.72984       -3.45998        3.23094
C         11.34777       -4.64513        3.55429
N         10.73555       -5.74807        3.03979
N         12.46605       -4.74915        4.22913
C         13.02849       -3.54003        4.52049
H         15.16883       -5.07964        5.28691
H         16.56804       -2.57531        6.29722
H         17.48165       -3.53231        8.19378
H         15.34496       -5.18637        8.88972
H         15.46063       -3.16550       10.03476
H         13.98282       -2.93980        9.06522
H          9.86716       -3.42851        2.71720
H         15.38958       -1.43506        5.18008
H         10.27215       -5.56526        2.15780
H         11.40379       -6.50714        2.96441
H         18.34791       -4.08873        5.64803
P         18.97908       -5.65808        7.41343
O         19.52255       -6.79133        8.24573
O         19.62435       -4.30400        7.33661
O         18.81481       -6.15225        5.89551
C         18.17094       -7.38234        5.67054
C         18.52195       -7.86238        4.27832
O         17.54988       -7.39389        3.32425
C         19.88579       -7.37457        3.83367
O         20.42806       -8.46143        3.10664
C         19.53729       -6.10651        3.04672
O         20.53385       -5.68592        2.13138
C         18.17427       -6.45596        2.40985
N         17.16810       -5.40633        2.15760
C         15.93696       -5.81856        1.64868
O         15.66709       -6.94167        1.21778
N         14.95223       -4.86340        1.62562
C         15.15118       -3.52732        1.76737
O         14.33879       -2.70817        1.35352
C         16.44999       -3.13475        2.32016
C         17.39605       -4.07090        2.44286
H         18.33038       -6.97423        1.45454
H         19.42521       -5.28740        3.75907
H         20.57230       -7.16811        4.66161
H         18.44240       -8.95468        4.26282
H         18.54125       -8.11107        6.39507
H         17.08988       -7.26356        5.78927
H         14.07939       -5.13248        1.21118
H         16.60506       -2.09385        2.57377
H         18.37709       -3.77920        2.80299
H         21.41228       -5.90339        2.54044
P         21.94219       -8.32260        2.57946
O         22.61349       -9.66697        2.69788
O         22.54576       -7.04755        3.10774
O         21.52680       -8.05584        1.05287
C         20.97887       -9.11103        0.30314
C         21.36349       -8.88078       -1.14608
O         20.42901       -7.96515       -1.76424
C         22.75340       -8.27648       -1.26339
O         23.30809       -8.82677       -2.44499
C         22.46218       -6.77358       -1.27806
O         23.45117       -5.96722       -1.89380
C         21.07472       -6.67838       -1.94359
N         20.15669       -5.64984       -1.45741
C         20.41510       -4.69556       -0.50518
N         19.40839       -3.86499       -0.32045
C         18.44138       -4.30326       -1.18775
C         17.16889       -3.77811       -1.47909
N         16.68073       -2.63573       -0.85603
N         16.44566       -4.34890       -2.46261
C         17.01978       -5.36689       -3.14221
N         18.21791       -5.96272       -2.95199
C         18.88991       -5.37979       -1.94031
H         21.17747       -6.49638       -3.02105
H         22.41933       -6.41929       -0.24750
H         23.40725       -8.55696       -0.42978
H         21.27167       -9.82600       -1.69159
H         21.39088      -10.06745        0.63520
H         19.89313       -9.11861        0.43276
H         16.43640       -5.74289       -3.97616
H         21.35618       -4.62841        0.02678
H         15.67105       -2.61061       -0.76275
H         17.19992       -2.40255       -0.01388
H         24.32977       -6.34829       -1.64142
P         24.87251       -8.53848       -2.72021
O         25.48541       -9.76469       -3.34726
O         25.47050       -7.82698       -1.53565
O         24.63508       -7.42585       -3.84416
C         24.03158       -7.77811       -5.06118
C         24.41477       -6.72605       -6.08573
O         23.45625       -5.64724       -6.07994
C         25.77953       -6.12930       -5.79965
O         26.33698       -5.87191       -7.07739
C         25.42114       -4.91073       -4.94443
O         26.45076       -3.94373       -4.87799
C         24.08163       -4.43915       -5.56235
N         23.06304       -3.77067       -4.73314
C         21.87870       -3.35248       -5.36062
O         21.70998       -3.44771       -6.57796
N         20.86222       -2.81612       -4.59077
C         21.06668       -2.59302       -3.32896
N         20.03948       -2.04172       -2.60736
C         22.33680       -2.90529       -2.65500
C         23.27788       -3.47223       -3.40622
H         24.28257       -3.77518       -6.41339
H         25.26476       -5.23527       -3.91507
H         26.46103       -6.81256       -5.28144
H         24.35265       -7.17148       -7.08424
H         24.41281       -8.74942       -5.38538
H         22.94670       -7.83280       -4.93207
H         22.48334       -2.65024       -1.61550
H         24.24458       -3.69086       -2.96756
H         19.13304       -2.19471       -3.03252
H         20.02503       -2.27931       -1.61406
H         27.31706       -4.42629       -4.90396
P         27.85104       -5.32587       -7.14924
O         28.53069       -5.97320       -8.33005
O         28.45564       -5.31639       -5.76894
O         27.44942       -3.81253       -7.52180
C         26.87536       -3.57141       -8.78588
C         27.24726       -2.16187       -9.21378
O         26.29060       -1.21779       -8.66707
C         28.63845       -1.77135       -8.73085
O         29.20798       -0.97850       -9.75853
C         28.33191       -1.07289       -7.40535
O         29.25472       -0.08414       -6.98966
C         26.91040       -0.49183       -7.57931
N         26.01794       -0.53543       -6.41644
C         26.27305       -1.20152       -5.24082
N         25.28642       -1.13786       -4.37683
C         24.37725       -0.33507       -4.97895
C         23.14577        0.17644       -4.43546
O         22.70034       -0.02110       -3.30929
N         22.52749        1.05854       -5.29225
C         23.13889        1.58603       -6.40524
N         22.52137        2.69226       -6.90589
N         24.25717        1.14500       -6.92699
C         24.82582        0.13858       -6.20032
H         26.96857        0.56516       -7.86741
H         28.36197       -1.84025       -6.63169
H         29.28940       -2.64208       -8.58874
H         27.15703       -2.09021      -10.30325
H         27.26855       -4.27938       -9.52054
H         25.79027       -3.69149       -8.71789
H         21.66355        1.42322       -4.93209
H         27.19423       -1.72777       -5.03784
H         22.05287        3.23940       -6.19374
H         23.18698        3.24752       -7.43222