899
	Energy:     633.2798354
H         -2.50217        8.91873       -0.89863
O         -2.11971        9.74400       -0.54979
P         -0.57987        9.29723       -0.38853
O          0.28412       10.51700       -0.48569
O         -0.48602        8.12656       -1.32427
O         -0.67685        8.74301        1.11756
C         -0.81975        9.67075        2.17262
C         -0.45724        9.00666        3.49568
O         -1.42470        7.98232        3.82455
C          0.90348        8.33975        3.45591
O          1.39871        8.43497        4.78036
C          0.57722        6.92495        2.98143
O          1.49582        5.91138        3.34993
C         -0.84309        6.68569        3.52712
N         -1.79689        6.00488        2.65561
C         -1.74960        5.86975        1.28768
N         -2.84481        5.32667        0.78974
C         -3.63817        5.09828        1.88140
C         -4.91569        4.52350        1.98534
N         -5.64960        4.12876        0.86169
N         -5.42293        4.28450        3.21402
C         -4.68477        4.67815        4.28044
N         -3.48502        5.28951        4.29840
C         -3.00143        5.46382        3.05609
H         -0.80336        6.10415        4.45812
H          0.59920        6.91981        1.89301
H          1.59840        8.85527        2.78449
H         -0.51488        9.75584        4.29413
H         -0.16344       10.53078        2.01273
H         -1.86041       10.00524        2.20221
H         -5.11516        4.46124        5.25394
H         -0.90998        6.19598        0.68442
H         -6.18770        3.30037        1.07042
H         -5.03567        4.08432        0.04991
H          2.40283        6.31860        3.33138
P          2.94225        8.02127        5.00978
O          3.58486        9.05845        5.88978
O          3.51131        7.58435        3.68303
O          2.62897        6.69217        5.84524
C          2.17970        6.77526        7.17372
C          2.55619        5.48037        7.87752
O          1.59668        4.44304        7.57011
C          3.92222        4.98429        7.44318
O          4.46949        4.36629        8.59417
C          3.56786        4.05673        6.28074
O          4.58881        3.14759        5.92739
C          2.22410        3.43057        6.73155
N          1.21088        3.05090        5.72558
C          0.00787        2.48811        6.17363
O         -0.18010        2.16043        7.34574
N         -1.02663        2.31093        5.26548
C         -0.80362        2.51511        4.00438
N         -1.86574        2.36397        3.14411
C          0.50284        2.92248        3.47149
C          1.44787        3.17182        4.37496
H          2.41001        2.54542        7.35407
H          3.41899        4.66311        5.38799
H          4.60215        5.78870        7.14243
H          2.49384        5.63574        8.96013
H          2.66818        7.61035        7.68214
H          1.09667        6.92460        7.17658
H          0.67064        3.01718        2.40994
H          2.43492        3.47058        4.04082
H         -2.74018        2.49879        3.63608
H         -1.79707        2.91773        2.29725
H          5.46051        3.58617        6.11388
P          5.98451        3.81991        8.51069
O          6.66711        4.14467        9.81348
O          6.56913        4.17472        7.16722
O          5.57895        2.26197        8.47833
C          5.05648        1.68828        9.65583
C          5.39841        0.20791        9.65465
O          4.43861       -0.52090        8.84666
C          6.78694       -0.03508        9.08652
O          7.34746       -1.09801        9.83699
C          6.49528       -0.32140        7.61470
O          7.44043       -1.14149        6.95455
C          5.07458       -0.92653        7.60920
N          4.18689       -0.56138        6.50062
C          4.42367        0.41831        5.56578
N          3.41941        0.60672        4.73634
C          2.52146       -0.34081        5.09270
C          1.27718       -0.67801        4.45043
O          0.75738       -0.12330        3.48415
N          0.71084       -1.81536        4.98343
C          1.34021       -2.62553        5.89856
N          0.74753       -3.84014        6.06763
N          2.44840       -2.32808        6.52426
C          2.99487       -1.14896        6.11223
H          5.12750       -2.02235        7.59981
H          6.52932        0.63041        7.08579
H          7.44056        0.83675        9.20753
H          5.29945       -0.17851       10.67521
H          5.50840        2.15310       10.53647
H          3.97439        1.84268        9.68121
H         -0.15719       -2.07574        4.55548
H          5.34398        0.98292        5.51849
H          0.36118       -4.20703        5.20771
H          1.42389       -4.48139        6.47356
H          8.32898       -0.89531        7.30646
P          8.93130       -1.36903        9.64758
O          9.50994       -1.82448       10.96168
O          9.53419       -0.28346        8.79992
O          8.76443       -2.63154        8.67607
C          8.15187       -3.79056        9.17822
C          8.49916       -4.93787        8.25324
O          7.52103       -5.04707        7.19810
C          9.86169       -4.75397        7.61198
O         10.41088       -6.05690        7.58222
C          9.50409       -4.10520        6.26955
O         10.49158       -4.22639        5.26149
C          8.14596       -4.75087        5.92262
N          7.13718       -4.00784        5.13987
C          5.90936       -4.63118        4.93622
O          5.63423       -5.80962        5.17040
N          4.92084       -3.84001        4.40765
C          5.11252       -2.63933        3.80252
O          4.28993       -2.17894        3.01688
C          6.41370       -2.00986        4.04772
C          7.36201       -2.72937        4.65723
H          8.30754       -5.70258        5.39917
H          9.38328       -3.03320        6.43430
H         10.54672       -4.13189        8.19804
H          8.42382       -5.87205        8.81992
H          8.55104       -4.00142       10.17289
H          7.06992       -3.64114        9.23706
H          4.05169       -4.29852        4.21437
H          6.57195       -0.99753        3.69886
H          8.34410       -2.28975        4.80174
H         11.37486       -4.19548        5.71709
P         11.91777       -6.21700        7.04002
O         12.60675       -7.27338        7.86341
O         12.50482       -4.85557        6.77358
O         11.47264       -6.83131        5.62609
C         10.95810       -8.13865        5.58477
C         11.33845       -8.72516        4.23916
O         10.40267       -8.28311        3.22672
C         12.72805       -8.27752        3.81614
O         13.27971       -9.37559        3.11282
C         12.43681       -7.01733        2.99754
O         13.42247       -6.66261        2.04440
C         11.05254       -7.29799        2.38298
N         10.13633       -6.16923        2.23248
C         10.39264       -4.85111        2.51906
N          9.38549       -4.05306        2.22138
C          8.42292       -4.89220        1.72670
C          7.15173       -4.60790        1.19609
N          6.66213       -3.30692        1.10948
N          6.42749       -5.61810        0.67400
C          7.00522       -6.84172        0.65310
N          8.20099       -7.23952        1.13709
C          8.87205       -6.20364        1.67598
H         11.15917       -7.72726        1.37845
H         12.39275       -6.16506        3.67627
H         13.38146       -8.06851        4.67095
H         11.24673       -9.81548        4.28748
H         11.39649       -8.74910        6.37840
H          9.87290       -8.10101        5.71248
H          6.42583       -7.61111        0.15384
H         11.33256       -4.50783        2.93482
H          5.65795       -3.24403        1.22821
H          7.20540       -2.67241        1.69249
H         14.30192       -6.84621        2.46335
P         14.84226       -9.27289        2.72047
O         15.46343      -10.63930        2.86089
O         15.43005       -8.02629        3.32618
O         14.59338       -8.95236        1.17357
C         14.01541       -9.92350        0.34242
C         14.39644       -9.58677       -1.08715
O         13.43517       -8.67432       -1.66068
C         15.76088       -8.92816       -1.16592
O         16.31859       -9.39881       -2.38136
C         15.40014       -7.44139       -1.10118
O         16.42800       -6.58943       -1.56562
C         14.06043       -7.37769       -1.87589
N         13.04136       -6.36595       -1.53857
C         11.85750       -6.34966       -2.29108
O         11.68137       -7.08450       -3.26485
N         10.84150       -5.48074       -1.93094
C         11.05005       -4.60996       -0.99176
N         10.02168       -3.75686       -0.67849
C         12.32233       -4.50990       -0.25949
C         13.25979       -5.39716       -0.58452
H         14.26108       -7.27746       -2.95065
H         15.24343       -7.15989       -0.05929
H         16.44150       -9.22425       -0.36029
H         14.33544      -10.49890       -1.68999
H         14.41709      -10.90684        0.59848
H         12.92996       -9.92201        0.47700
H         12.47421       -3.73491        0.47770
H         14.22716       -5.34718       -0.09757
H          9.11695       -4.13379       -0.93052
H         10.02628       -3.41905        0.28589
H         17.29487       -7.00723       -1.32437
P         17.83441       -8.97959       -2.73502
O         18.50942      -10.16568       -3.37773
O         18.43437       -8.22407       -1.57781
O         17.43216       -7.90799       -3.86733
C         16.85801       -8.39065       -5.06026
C         17.21510       -7.43009       -6.18124
O         16.25989       -6.33921       -6.21880
C         18.60643       -6.84375       -5.99452
O         19.16627       -6.72719       -7.29210
C         18.31284       -5.54045       -5.25220
O         19.24762       -4.49754       -5.45451
C         16.89036       -5.14190       -5.70223
N         16.00324       -4.55003       -4.69783
C         16.25021       -4.48161       -3.34767
N         15.25666       -3.96634       -2.65908
C         14.35543       -3.60971       -3.60352
C         13.12575       -2.88149       -3.43165
O         12.66004       -2.44617       -2.38262
N         12.52390       -2.58837       -4.63465
C         13.14867       -2.74210       -5.84931
N         12.55186       -2.06641       -6.87101
N         14.26055       -3.40469       -6.04303
C         14.81354       -3.86626       -4.88435
H         16.94411       -4.41050       -6.51813
H         18.35227       -5.76072       -4.18535
H         19.26001       -7.50296       -5.41121
H         17.11742       -7.95497       -7.13795
H         17.26209       -9.37806       -5.29990
H         15.77423       -8.46699       -4.93512
H         11.66521       -2.07878       -4.53346
H         17.17000       -4.81658       -2.89056
H         12.11861       -1.20488       -6.56194
H         13.23660       -1.89945       -7.60168
H         20.13274       -4.91314       -5.56130
P         20.75220       -6.42464       -7.39430
O         21.30271       -7.09482       -8.62733
O         21.38707       -6.53710       -6.03766
O         20.59817       -4.85282       -7.67491
C         19.95863       -4.45486       -8.86177
C         20.31026       -3.00791       -9.13334
O         19.33602       -2.13201       -8.53345
C         21.67291       -2.63876       -8.58227
O         22.21633       -1.76357       -9.55299
C         21.32026       -2.04250       -7.21506
O         22.31494       -1.19663       -6.66530
C         19.95861       -1.36133       -7.47319
N         18.94953       -1.25910       -6.40108
C         17.72201       -0.69390       -6.74078
O         17.45335       -0.10654       -7.79099
N         16.73381       -0.80479       -5.79612
C         16.92282       -1.13886       -4.49333
O         16.10045       -0.84959       -3.63145
C         18.22106       -1.74199       -4.17781
C         19.17120       -1.73243       -5.11862
H         20.11728       -0.34212       -7.84968
H         21.20599       -2.86475       -6.50658
H         22.35981       -3.48729       -8.49521
H         20.23324       -2.83369      -10.21193
H         20.33257       -5.06715       -9.68541
H         18.87731       -4.58954       -8.76474
H         15.86422       -0.35400       -6.00841
H         18.37344       -2.14115       -3.18304
H         20.15115       -2.13189       -4.87801
H         23.19491       -1.56873       -6.93733
P         23.72949       -1.25813       -9.33824
O         24.40109       -1.18387      -10.68570
O         24.33246       -1.95921       -8.14933
O         23.30603        0.21415       -8.86090
C         22.76375        1.10381       -9.80435
C         23.14509        2.50623       -9.37076
O         22.21066        2.98557       -8.37532
C         24.53479        2.53925       -8.75693
O         25.08333        3.79059       -9.13063
C         24.24610        2.33779       -7.26761
O         25.23381        2.83620       -6.38283
C         22.85847        2.98025       -7.07706
N         21.94506        2.34959       -6.12710
C         22.20558        1.27080       -5.31949
N         21.19920        0.96736       -4.52388
C         20.23357        1.88978       -4.83059
C         18.96396        2.10371       -4.26577
N         18.47769        1.32059       -3.22567
N         18.24148        3.16109       -4.68575
C         18.81515        3.98078       -5.59528
N         20.00996        3.87614       -6.21666
C         20.68037        2.78954       -5.78767
H         22.96023        4.02077       -6.74299
H         24.20721        1.26718       -7.06353
H         25.19009        1.75654       -9.15585
H         23.05114        3.18056      -10.22861
H         23.18102        0.90975      -10.79572
H         21.67816        0.97638       -9.83583
H         18.23321        4.86203       -5.84420
H         23.14736        0.73573       -5.32994
H         17.46873        1.22105       -3.21380
H         19.00248        0.45626       -3.11758
H         26.11236        2.63976       -6.79560
P         26.64913        4.02170       -8.81261
O         27.25439        4.81895       -9.93992
O         27.24703        2.74641       -8.28176
O         26.41816        4.97397       -7.54872
C         25.81520        6.22909       -7.72101
C         26.19667        7.09016       -6.53144
O         25.23824        6.92748       -5.46498
C         27.56134        6.72301       -5.98160
O         28.11185        7.95151       -5.53778
C         27.20499        5.69981       -4.90027
O         28.23687        5.49790       -3.95481
C         25.86493        6.24235       -4.34383
N         24.84709        5.32520       -3.80116
C         23.66204        5.88509       -3.29835
O         23.49105        7.10333       -3.21939
N         22.64595        5.04560       -2.87804
C         22.85278        3.76533       -2.83520
N         21.82700        2.97034       -2.39278
C         24.12428        3.14457       -3.23887
C         25.06417        3.96984       -3.69366
H         26.06552        6.98941       -3.56456
H         27.04976        4.72753       -5.36933
H         28.24536        6.31221       -6.73210
H         26.13369        8.14253       -6.82770
H         26.19813        6.69071       -8.63431
H         24.73043        6.10975       -7.79537
H         24.27283        2.07976       -3.13315
H         26.03184        3.56833       -3.97168
H         20.91882        3.40847       -2.48807
H         21.82023        2.01941       -2.76567
H         29.10243        5.59527       -4.42977
P         29.62944        7.95203       -4.99545
O         30.29468        9.21927       -5.47263
O         30.23879        6.58780       -5.18773
O         29.23469        8.10253       -3.44215
C         28.65607        9.31697       -3.02285
C         29.02123        9.53879       -1.56550
O         28.06885        8.85611       -0.71124
C         30.41312        9.01370       -1.24607
O         30.97279        9.92002       -0.31013
C         30.11891        7.59978       -0.74533
O         31.05063        7.06615        0.17618
C         28.69723        7.67934       -0.14757
N         27.81022        6.53218       -0.35929
C         28.06211        5.46795       -1.19177
N         27.07270        4.60645       -1.25504
C         26.16767        5.08339       -0.36803
C         24.93790        4.47240        0.06487
O         24.48446        3.39056       -0.29547
N         24.32764        5.19029        1.06835
C         24.94548        6.21192        1.75065
N         24.33531        6.54586        2.92186
N         26.06127        6.79177        1.38431
C         26.62081        6.22039        0.27873
H         28.75212        7.81438        0.93974
H         30.15717        6.93903       -1.61153
H         31.06565        9.00314       -2.12703
H         28.92481       10.60617       -1.33831
H         29.05057       10.14701       -3.61533
H         27.57168        9.26531       -3.15576
H         23.46509        4.78119        1.38067
H         28.98247        5.34394       -1.74328
H         23.86468        5.76252        3.35869
H         25.00720        6.97988        3.54557
H         31.93247        7.44088       -0.04203
P         32.55870        9.80452       -0.01383
O         33.10319       11.17586        0.29459
O         33.19879        8.86051       -0.99071
O         32.40513        8.97988        1.35419
C         31.76291        9.61272        2.43355
C         32.11367        8.87099        3.70562
O         31.14058        7.84321        3.97369
C         33.47768        8.21535        3.62631
O         34.02044        8.37871        4.92340
C         33.12785        6.79087        3.18251
O         34.12321        5.82236        3.46235
C         31.76516        6.53814        3.86399
N         30.75950        5.65979        3.23608
C         29.52915        5.54438        3.88206
O         29.26055        5.95296        5.01380
N         28.54363        4.90247        3.17560
C         28.74113        4.13585        2.07200
O         27.92808        3.28727        1.72401
C         30.03960        4.29676        1.41237
C         30.98642        5.00193        2.03917
H         31.92169        6.15573        4.88129
H         33.01494        6.79422        2.09701
H         34.16407        8.70556        2.92778
H         32.03450        9.57238        4.54319
H         32.13475       10.63676        2.51216
H         30.68171        9.62631        2.26711
H         27.67124        4.76518        3.65105
H         30.19366        3.80735        0.45918
H         31.96718        5.08324        1.58215
H         35.00287        6.27234        3.36028
P         35.53251        7.88312        5.16719
O         36.20317        8.85053        6.10869
O         36.13754        7.44569        3.85904
O         35.10608        6.55704        5.96390
C         34.56197        6.68505        7.25356
C         34.94548        5.43942        8.02925
O         34.01225        4.37218        7.74074
C         36.33537        4.95489        7.65158
O         36.88424        4.41748        8.84181
C         36.04673        3.96125        6.52391
O         37.03543        2.96718        6.32144
C         34.65978        3.39525        6.88554
N         33.74420        3.08939        5.78821
C         34.00357        3.18530        4.44381
N         32.99693        2.78190        3.69432
C         32.03025        2.41064        4.59274
C         30.75868        1.84471        4.38648
N         30.26840        1.56950        3.11559
N         30.03776        1.47078        5.46190
C         30.61237        1.62217        6.67620
N         31.80871        2.15883        7.00216
C         32.47879        2.54515        5.89928
H         34.76275        2.46131        7.45283
H         36.00684        4.50792        5.58107
H         36.99034        5.76923        7.32141
H         34.85222        5.64634        9.10068
H         34.97675        7.56194        7.75718
H         33.47629        6.79003        7.17666
H         30.03043        1.23487        7.50608
H         34.94508        3.54362        4.04569
H         29.25849        1.62208        3.03759
H         30.78498        2.05553        2.38779
H         37.91347        3.40831        6.44458
P         38.45060        4.02797        8.80900
O         39.05481        4.35835       10.15012
O         39.04859        4.46269        7.49791
O         38.22204        2.44885        8.70067
C         37.61978        1.75630        9.76184
C         38.00378        0.29415        9.63379
O         37.04717       -0.40631        8.81158
C         39.36927        0.12036        8.99718
O         39.91933       -1.01921        9.63590
C         39.01431       -0.02675        7.51529
O         40.04646       -0.60807        6.74298
C         37.67561       -0.80392        7.56008
N         36.65870       -0.61478        6.51133
C         35.47607       -1.36489        6.60562
O         35.30886       -2.22417        7.47352
N         34.45780       -1.13383        5.69833
C         34.65993       -0.32489        4.70410
N         33.63089       -0.14037        3.81687
C         35.92950        0.39024        4.49831
C         36.87171        0.19430        5.41789
H         37.87749       -1.88181        7.61476
H         38.85806        0.96441        7.08797
H         40.05244        0.95694        9.17919
H         37.94020       -0.17126       10.62305
H         38.00146        2.14487       10.70903
H         36.53478        1.88888        9.71984
H         36.07419        1.00969        3.62522
H         37.83795        0.67013        5.29625
H         32.72478       -0.36142        4.21186
H         33.61674        0.76505        3.34438
H         40.91189       -0.31479        7.12919
P         41.43587       -1.43224        9.28053
O         42.10017       -1.90336       10.55051
O         42.04750       -0.39404        8.37624
O         41.03792       -2.70346        8.37657
C         40.45862       -3.81558        9.01953
C         40.82362       -5.06250        8.23301
O         39.87088       -5.26198        7.15814
C         42.21513       -4.96002        7.62642
O         42.77510       -6.26080        7.69899
C         41.91985       -4.41329        6.22977
O         42.85199       -4.76042        5.22349
C         40.49792       -4.91821        5.89897
N         39.60886       -4.00861        5.17072
C         39.85991       -2.68210        4.91238
N         38.86970       -2.07022        4.30424
C         37.96432       -3.05290        4.08453
C         36.73378       -2.97864        3.34006
O         36.28694       -1.99780        2.75361
N         36.12011       -4.20570        3.22852
C         36.73742       -5.39114        3.55188
N         36.12530       -6.49377        3.03653
N         37.85515       -5.49558        4.22748
C         38.41753       -4.28660        4.51932
H         40.55337       -5.82868        5.28955
H         41.95762       -3.32589        6.29721
H         42.86790       -4.28701        8.19476
H         40.72766       -5.93298        8.89126
H         40.85276       -3.91168       10.03497
H         39.37428       -3.68099        9.06737
H         35.25788       -4.17389        2.71410
H         40.78038       -2.18381        5.17910
H         35.66362       -6.31036        2.15377
H         36.79397       -7.25256        2.96131
H         43.73363       -4.84143        5.64989
P         44.36123       -6.40931        7.41880
O         44.90504       -7.54072        8.25332
O         45.00178       -5.05306        7.34566
O         44.20856       -6.90298        5.89953
C         43.56663       -8.13324        5.67078
C         43.91883       -8.60945        4.27781
O         42.94653       -8.13976        3.32465
C         45.28288       -8.12016        3.83460
O         45.82545       -9.20789        3.10909
C         44.93325       -6.85195        3.04829
O         45.92894       -6.42952        2.13331
C         43.57051       -7.20149        2.41072
N         42.56434       -6.15198        2.15846
C         41.33411       -6.56484        1.64806
O         41.06585       -7.68777        1.21567
N         40.34829       -5.61080        1.62555
C         40.54520       -4.27469        1.76945
O         39.73173       -3.45607        1.35672
C         41.84366       -3.88130        2.32282
C         42.79080       -4.81653        2.44506
H         43.72720       -7.71933        1.45526
H         44.82007       -6.03362        3.76146
H         45.96903       -7.91313        4.66265
H         43.83981       -9.70178        4.25994
H         43.93759       -8.86308        6.39386
H         42.48529       -8.01632        5.78892
H         39.47595       -5.88037        1.21039
H         41.99735       -2.84043        2.57736
H         43.77137       -4.52422        2.80599
H         46.80840       -6.64785        2.54019
P         47.33731       -9.06837        2.57427
O         48.00729      -10.41385        2.68804
O         47.94324       -7.79384        3.10062
O         46.91037       -8.80119        1.05063
C         46.36505       -9.85882        0.30251
C         46.74924       -9.62977       -1.14674
O         45.81595       -8.71321       -1.76489
C         48.13918       -9.02685       -1.26532
O         48.68863       -9.57473       -2.45039
C         47.85010       -7.52401       -1.27835
O         48.83886       -6.72018       -1.89712
C         46.46305       -7.42695       -1.94307
N         45.54694       -6.39763       -1.45577
C         45.80585       -5.44443       -0.50273
N         44.79899       -4.61413       -0.31678
C         43.83264       -5.04993       -1.18599
C         42.56111       -4.52338       -1.47868
N         42.07090       -3.38269       -0.85430
N         41.84029       -5.09123       -2.46555
C         42.41504       -6.10806       -3.14629
N         43.61146       -6.70581       -2.95422
C         44.28147       -6.12534       -1.93995
H         46.56605       -7.24406       -3.02037
H         47.81000       -7.16920       -0.24788
H         48.79406       -9.31017       -0.43346
H         46.65624      -10.57515       -1.69182
H         46.77879      -10.81423        0.63531
H         45.27939       -9.86848        0.43213
H         41.83314       -6.48158       -3.98248
H         46.74728       -5.37793        0.02885
H         41.06098       -3.35797       -0.76365
H         42.58750       -3.15093       -0.01035
H         49.71697       -7.10166       -1.64406
P         50.25493       -9.29493       -2.72381
O         50.85835      -10.52494       -3.35285
O         50.85443       -8.58905       -1.53719
O         50.02570       -8.17913       -3.84640
C         49.42296       -8.52796       -5.06446
C         49.80653       -7.47417       -6.08634
O         48.84999       -6.39396       -6.07739
C         51.17188       -6.87911       -5.80137
O         51.72163       -6.61484       -7.08093
C         50.81720       -5.66303       -4.94174
O         51.84904       -4.69846       -4.87521
C         49.47878       -5.18780       -5.55847
N         48.46225       -4.51854       -4.72885
C         47.28036       -4.09772       -5.35773
O         47.11357       -4.19052       -6.57557
N         46.26227       -3.56311       -4.58903
C         46.46403       -3.34226       -3.32641
N         45.43471       -2.79294       -2.60616
C         47.73323       -3.65560       -2.65087
C         48.67532       -4.22235       -3.40122
H         49.68112       -4.52347       -6.40897
H         50.66114       -5.98919       -3.91284
H         51.85537       -7.56448       -5.28860
H         49.74287       -7.91741       -7.08573
H         49.80444       -9.49841       -5.39087
H         48.33800       -8.58287       -4.93638
H         47.87779       -3.40180       -1.61086
H         49.64138       -4.44250       -2.96184
H         44.52887       -2.94674       -3.03245
H         45.42009       -3.02917       -1.61259
H         52.71450       -5.18230       -4.90598
P         53.23843       -6.07667       -7.15923
O         53.90403       -6.72754       -8.34641
O         53.84910       -6.07372       -5.78200
O         52.84257       -4.56048       -7.52758
C         52.26755       -4.31615       -8.79047
C         52.63898       -2.90645       -9.21617
O         51.68640       -1.96118       -8.66592
C         54.03090       -2.51881       -8.73750
O         54.59540       -1.72639       -9.76870
C         53.73210       -1.81984       -7.41091
O         54.66339       -0.83335       -7.00953
C         52.31084       -1.23733       -7.57844
N         51.41850       -1.28363       -6.41610
C         51.66815       -1.95723       -5.24407
N         50.67713       -1.89865       -4.38437
C         49.77228       -1.08918       -4.98380
C         48.54142       -0.57548       -4.44051
O         48.09442       -0.77443       -3.31522
N         47.92777        0.31207       -5.29498
C         48.54579        0.84472       -6.40188
N         47.93341        1.95637       -6.89729
N         49.66409        0.40313       -6.92277
C         50.22648       -0.60953       -6.20053
H         52.36766       -0.18002       -7.86530
H         53.76630       -2.58365       -6.63390
H         54.68158       -3.39011       -8.59789
H         52.54587       -2.83334      -10.30535
H         52.66061       -5.02191       -9.52740
H         51.18256       -4.43660       -8.72264
H         47.06531        0.67974       -4.93428
H         52.58835       -2.48509       -5.04103
H         47.47027        2.50236       -6.18070
H         48.60205        2.51121       -7.42034