1155
	Energy:     963.5812584
H       -111.92494        8.91852       -0.90028
O       -111.54350        9.74387       -0.55057
P       -110.00298        9.29900       -0.39010
O       -109.14076       10.52006       -0.48748
O       -109.90748        8.12840       -1.32599
O       -110.09843        8.74444        1.11602
C       -110.24190        9.67191        2.17128
C       -109.87983        9.00780        3.49451
O       -110.84721        7.98326        3.82289
C       -108.51900        8.34105        3.45550
O       -108.02472        8.43535        4.78041
C       -108.84475        6.92634        2.98047
O       -107.92590        5.91287        3.34886
C       -110.26494        6.68675        3.52619
N       -111.21836        6.00514        2.65499
C       -111.17129        5.86988        1.28708
N       -112.26641        5.32627        0.78949
C       -113.05958        5.09804        1.88137
C       -114.33710        4.52336        1.98576
N       -115.07131        4.12833        0.86243
N       -114.84419        4.28494        3.21463
C       -114.10586        4.67895        4.28078
N       -112.90604        5.29013        4.29829
C       -112.42268        5.46395        3.05584
H       -110.22496        6.10571        4.45750
H       -108.82275        6.92155        1.89205
H       -107.82369        8.85699        2.78481
H       -109.93800        9.75694        4.29295
H       -109.58566       10.53206        2.01174
H       -111.28263       10.00625        2.20049
H       -114.53617        4.46264        5.25444
H       -110.33195        6.19649        0.68363
H       -115.60951        3.30012        1.07160
H       -114.45761        4.08353        0.05051
H       -107.01905        6.32049        3.33073
P       -106.48079        8.02311        5.01011
O       -105.83934        9.06106        5.89005
O       -105.91115        7.58669        3.68345
O       -106.79264        6.69371        5.84569
C       -107.24236        6.77649        7.17406
C       -106.86604        5.48155        7.87794
O       -107.82543        4.44426        7.57013
C       -105.49989        4.98533        7.44414
O       -104.95327        4.36655        8.59508
C       -105.85387        4.05794        6.28146
O       -104.83287        3.14866        5.92852
C       -107.19753        3.43165        6.73211
N       -108.21031        3.05139        5.72604
C       -109.41326        2.48859        6.17418
O       -109.60139        2.16145        7.34642
N       -110.44758        2.31091        5.26597
C       -110.22440        2.51466        4.00483
N       -111.28653        2.36333        3.14463
C       -108.91786        2.92180        3.47192
C       -107.97305        3.17182        4.37542
H       -107.01153        2.54675        7.35496
H       -106.00257        4.66436        5.38868
H       -104.81970        5.78973        7.14398
H       -106.92879        5.63686        8.96054
H       -106.75414        7.61159        7.68273
H       -108.32541        6.92573        7.17657
H       -108.74992        3.01586        2.41034
H       -106.98597        3.47062        4.04136
H       -112.16091        2.49827        3.63671
H       -111.21794        2.91707        2.29776
H       -103.96125        3.58735        6.11514
P       -103.43788        3.82102        8.51225
O       -102.75613        4.14605        9.81542
O       -102.85285        4.17645        7.16911
O       -103.84224        2.26275        8.47941
C       -104.36588        1.68872        9.65625
C       -104.02475        0.20809        9.65492
O       -104.98404       -0.52015        8.84591
C       -102.63591       -0.03539        9.08788
O       -102.07627       -1.09925        9.83783
C       -102.92626       -0.32103        7.61568
O       -101.97977       -1.14034        6.95631
C       -104.34686       -0.92637        7.60921
N       -105.23380       -0.56169        6.49995
C       -104.99726        0.41828        5.56537
N       -106.00125        0.60588        4.73535
C       -106.89899       -0.34197        5.09163
C       -108.14335       -0.67957        4.44966
O       -108.66347       -0.12508        3.48342
N       -108.70956       -1.81678        4.98328
C       -108.08041       -2.62612        5.89931
N       -108.67330       -3.84038        6.07002
N       -106.97215       -2.32825        6.52463
C       -106.42562       -1.14956        6.11158
H       -104.29388       -2.02219        7.60040
H       -102.89221        0.63089        7.08700
H       -101.98207        0.83609        9.20998
H       -104.12480       -0.17855       10.67528
H       -103.91428        2.15300       10.53735
H       -105.44790        1.84372        9.68091
H       -109.57784       -2.07731        4.55592
H       -104.07740        0.98369        5.51880
H       -109.05913       -4.20872        5.21050
H       -107.99717       -4.48097        6.47742
H       -101.09160       -0.89098        7.30724
P       -100.49195       -1.36922        9.64996
O        -99.91397       -1.82338       10.96481
O        -99.88921       -0.28335        8.80249
O       -100.65642       -2.63241        8.67893
C       -101.27004       -3.79131        9.18005
C       -100.92293       -4.93840        8.25462
O       -101.90105       -5.04693        7.19935
C        -99.56035       -4.75481        7.61336
O        -99.01178       -6.05799        7.58277
C        -99.91772       -4.10552        6.27111
O        -98.93023       -4.22648        5.26296
C       -101.27568       -4.75127        5.92397
N       -102.28410       -4.00855        5.14061
C       -103.51175       -4.63212        4.93666
O       -103.78689       -5.81047        5.17129
N       -104.50008       -3.84129        4.40727
C       -104.30814       -2.64095        3.80153
O       -105.13042       -2.18096        3.01532
C       -103.00714       -2.01122        4.04708
C       -102.05913       -2.73023        4.65765
H       -101.11387       -5.70319        5.40093
H       -100.03865       -3.03357        6.43623
H        -98.87502       -4.13332        8.19969
H       -100.99865       -5.87280        8.82088
H       -100.87170       -4.00286       10.17492
H       -102.35195       -3.64129        9.23817
H       -105.36911       -4.29999        4.21390
H       -102.84879       -0.99912        3.69763
H       -101.07716       -2.29048        4.80253
H        -98.04718       -4.19589        5.71882
P        -97.50458       -6.21822        7.04144
O        -96.81627       -7.27480        7.86514
O        -96.91720       -4.85682        6.77559
O        -97.94880       -6.83228        5.62712
C        -98.46414       -8.13930        5.58536
C        -98.08416       -8.72576        4.23959
O        -99.01961       -8.28292        3.22724
C        -96.69435       -8.27882        3.81660
O        -96.14352       -9.37674        3.11236
C        -96.98480       -7.01814        2.99848
O        -95.99865       -6.66360        2.04571
C        -98.36891       -7.29836        2.38346
N        -99.28462       -6.16939        2.23219
C        -99.02830       -4.85120        2.51844
N       -100.03511       -4.05311        2.21960
C       -100.99779       -4.89251        1.72530
C       -102.26908       -4.60873        1.19460
N       -102.75899       -3.30791        1.10716
N       -102.99355       -5.61947        0.67379
C       -102.41601       -6.84318        0.65410
N       -101.22008       -7.24045        1.13800
C       -100.54885       -6.20405        1.67568
H        -98.26199       -7.72804        1.37912
H        -97.02891       -6.16602        3.67740
H        -96.04074       -8.07076        4.67149
H        -98.17659       -9.81604        4.28765
H        -98.02612       -8.75021        6.37885
H        -99.54933       -8.10103        5.71308
H       -102.99577       -7.61322        0.15627
H        -98.08863       -4.50794        2.93477
H       -103.76320       -3.24538        1.22596
H       -102.21600       -2.67289        1.68986
H        -95.11946       -6.84772        2.46502
P        -94.58054       -9.27533        2.72125
O        -93.96069      -10.64229        2.86224
O        -93.99220       -8.02928        3.32758
O        -94.82764       -8.95458        1.17408
C        -95.40650       -9.92501        0.34267
C        -95.02581       -9.58815       -1.08701
O        -95.98702       -8.67529       -1.65998
C        -93.66123       -8.92987       -1.16627
O        -93.10414       -9.39987       -2.38233
C        -94.02157       -7.44302       -1.10102
O        -92.99362       -6.59117       -1.56556
C        -95.36118       -7.37905       -1.87576
N        -96.37974       -6.36674       -1.53897
C        -97.56343       -6.35034       -2.29174
O        -97.73969       -7.08562       -3.26514
N        -98.57912       -5.48086       -1.93218
C        -98.37045       -4.60987       -0.99323
N        -99.39872       -3.75653       -0.68033
C        -97.09824       -4.50991       -0.26080
C        -96.16109       -5.39775       -0.58517
H        -95.16039       -7.27938       -2.95056
H        -94.17822       -7.16171       -0.05906
H        -92.98034       -9.22652       -0.36107
H        -95.08734      -10.50014       -1.69001
H        -95.00536      -10.90868        0.59831
H        -96.49192       -9.92288        0.47759
H        -96.94624       -3.73459        0.47603
H        -95.19381       -5.34807       -0.09799
H       -100.30341       -4.13336       -0.93270
H        -99.39441       -3.41890        0.28410
H        -92.12685       -7.00925       -1.32429
P        -91.58789       -8.98160       -2.73553
O        -90.91335      -10.16803       -3.37819
O        -90.98830       -8.22632       -1.57794
O        -91.98876       -7.90943       -3.86779
C        -92.56421       -8.39127       -5.06045
C        -92.20804       -7.43038       -6.18151
O        -93.16282       -6.33918       -6.21784
C        -90.81645       -6.84451       -5.99592
O        -90.25754       -6.72699       -7.29385
C        -91.10860       -5.54126       -5.25308
O        -90.17230       -4.49972       -5.45612
C        -92.53113       -5.14199       -5.70234
N        -93.41741       -4.54938       -4.69772
C        -93.17060       -4.48142       -3.34751
N        -94.16368       -3.96493       -2.65910
C        -95.06476       -3.60796       -3.60365
C        -96.29447       -2.87958       -3.43221
O        -96.76034       -2.44401       -2.38335
N        -96.89630       -2.58710       -4.63546
C        -96.27194       -2.74228       -5.85016
N        -96.86911       -2.06821       -6.87271
N        -95.16004       -3.40492       -6.04336
C        -94.60687       -3.86533       -4.88436
H        -92.47759       -4.41105       -6.51866
H        -91.06873       -5.76136       -4.18623
H        -90.16262       -7.50422       -5.41352
H        -92.30684       -7.95494       -7.13828
H        -92.16053       -9.37866       -5.30083
H        -93.64789       -8.46742       -4.93427
H        -97.75524       -2.07783       -4.53474
H        -92.25132       -4.81770       -2.89031
H        -97.30197       -1.20602       -6.56502
H        -96.18471       -1.90287       -7.60408
H        -89.28709       -4.91705       -5.55669
P        -88.67116       -6.42643       -7.39636
O        -88.12180       -7.09821       -8.62906
O        -88.03639       -6.53932       -6.03963
O        -88.82230       -4.85454       -7.67786
C        -89.46327       -4.45568       -8.86360
C        -89.11175       -3.00854       -9.13465
O        -90.08590       -2.13291       -8.53417
C        -87.74900       -2.63925       -8.58382
O        -87.20613       -1.76329       -9.55419
C        -88.10137       -2.04354       -7.21630
O        -87.10653       -1.19795       -6.66622
C        -89.46282       -1.36201       -7.47435
N        -90.47156       -1.25907       -6.40208
C        -91.69893       -0.69354       -6.74180
O        -91.96758       -0.10655       -7.79222
N        -92.68697       -0.80365       -5.79691
C        -92.49772       -1.13700       -4.49397
O        -93.31976       -0.84698       -3.63202
C        -91.19967       -1.74058       -4.17844
C        -90.24980       -1.73211       -5.11954
H        -89.30384       -0.34299       -7.85125
H        -88.21591       -2.86606       -6.50815
H        -87.06183       -3.48762       -8.49742
H        -89.18915       -2.83387      -10.21314
H        -89.09050       -5.06765       -9.68802
H        -90.54450       -4.59013       -8.76525
H        -93.55644       -0.35270       -6.00933
H        -91.04723       -2.13914       -3.18345
H        -89.26995       -2.13191       -4.87907
H        -86.22667       -1.57004       -6.93866
P        -85.69267       -1.25844       -9.34002
O        -85.02157       -1.18434      -10.68775
O        -85.08945       -1.95994       -8.15148
O        -86.11524        0.21398       -8.86234
C        -86.65833        1.10376       -9.80527
C        -86.27737        2.50628       -9.37154
O        -87.21143        2.98505       -8.37554
C        -84.88744        2.53972       -8.75827
O        -84.33969        3.79167       -9.13115
C        -85.17531        2.33754       -7.26889
O        -84.18697        2.83567       -6.38455
C        -86.56278        2.98009       -7.07767
N        -87.47572        2.34984       -6.12706
C        -87.21522        1.27124       -5.31921
N        -88.22132        0.96868       -4.52287
C        -89.18700        1.89102       -4.82995
C        -90.45667        2.10537       -4.26542
N        -90.94327        1.32303       -3.22487
N        -91.17936        3.16216       -4.68664
C        -90.60586        3.98097       -5.59705
N        -89.41089        3.87604       -6.21795
C        -88.74035        2.78999       -5.78780
H        -86.46073        4.02072       -6.74401
H        -85.21430        1.26687       -7.06509
H        -84.23197        1.75759       -9.15800
H        -86.37201        3.18078      -10.22918
H        -86.24141        0.91010      -10.79687
H        -87.74390        0.97590       -9.83629
H        -91.18816        4.86158       -5.84740
H        -86.27369        0.73572       -5.33008
H        -91.95228        1.22372       -3.21339
H        -90.41882        0.45858       -3.11620
H        -83.30871        2.63911       -6.79798
P        -82.77346        4.02255       -8.81490
O        -82.16940        4.81958       -9.94301
O        -82.17518        2.74713       -8.28477
O        -83.00255        4.97499       -7.55075
C        -83.60654        6.22976       -7.72229
C        -83.22541        7.09086       -6.53257
O        -84.18382        6.92755       -5.46619
C        -81.86063        6.72422       -5.98259
O        -81.31070        7.95268       -5.53785
C        -82.21668        5.70062       -4.90155
O        -81.18478        5.49868       -3.95607
C        -83.55662        6.24310       -4.34492
N        -84.57397        5.32599       -3.80150
C        -85.75885        5.88602       -3.29843
O        -85.92996        7.10428       -3.22007
N        -86.77463        5.04662       -2.87731
C        -86.56770        3.76638       -2.83414
N        -87.59338        2.97153       -2.39128
C        -85.29628        3.14555       -3.23801
C        -84.35669        3.97069       -3.69367
H        -83.35589        6.99055       -3.56607
H        -82.37192        4.72844       -5.37084
H        -81.17634        6.31409       -6.73319
H        -83.28887        8.14326       -6.82863
H        -83.22430        6.69192       -8.63561
H        -84.69126        6.10961       -7.79629
H        -85.14761        2.08080       -3.13181
H        -83.38911        3.56918       -3.97206
H        -88.50150        3.40984       -2.48630
H        -87.60044        2.02068       -2.76433
H        -80.31931        5.59615       -4.43117
P        -79.79272        7.95351       -4.99647
O        -79.12816        9.22101       -5.47391
O        -79.18312        6.58947       -5.18948
O        -80.18621        8.10358       -3.44277
C        -80.76606        9.31739       -3.02319
C        -80.40188        9.53920       -1.56556
O        -81.35388        8.85543       -0.71188
C        -79.00980        9.01527       -1.24565
O        -78.45107        9.92130       -0.30878
C        -79.30250        7.60106       -0.74515
O        -78.36930        7.06935        0.17612
C        -80.72430        7.67955       -0.14755
N        -81.61041        6.53171       -0.35890
C        -81.35862        5.46773       -1.19170
N        -82.34751        4.60551       -1.25392
C        -83.25245        5.08231       -0.36664
C        -84.48224        4.47154        0.06664
O        -84.93582        3.38965       -0.29338
N        -85.09253        5.19005        1.06976
C        -84.47512        6.21266        1.75100
N        -85.08566        6.54831        2.92152
N        -83.35930        6.79216        1.38432
C        -82.79957        6.21978        0.27941
H        -80.66974        7.81523        0.93969
H        -79.26353        6.94003       -1.61108
H        -78.35693        9.00568       -2.12635
H        -80.49940       10.60644       -1.33815
H        -80.37192       10.14792       -3.61523
H        -81.85034        9.26487       -3.15667
H        -85.95533        4.78150        1.38213
H        -80.43877        5.34453       -1.74424
H        -85.55608        5.76562        3.35967
H        -84.41409        6.98385        3.54453
H        -77.48711        7.44003       -0.04821
P        -76.86469        9.80756       -0.01381
O        -76.32155       11.17979        0.29325
O        -76.22457        8.86393       -0.99115
O        -77.01509        8.98347        1.35483
C        -77.65899        9.61462        2.43409
C        -77.30844        8.87237        3.70598
O        -78.28136        7.84424        3.97341
C        -75.94432        8.21691        3.62703
O        -75.40226        8.37941        4.92456
C        -76.29372        6.79253        3.18249
O        -75.29815        5.82396        3.46184
C        -77.65616        6.53942        3.86418
N        -78.66140        5.66041        3.23672
C        -79.89159        5.54478        3.88295
O        -80.16020        5.95374        5.01455
N        -80.87695        4.90222        3.17689
C        -80.67919        4.13504        2.07373
O        -81.49188        3.28591        1.72626
C        -79.38089        4.29626        1.41377
C        -78.43436        5.00234        2.03996
H        -77.49928        6.15745        4.88161
H        -76.40687        6.79639        2.09699
H        -75.25762        8.70762        2.92920
H        -77.38810        9.57339        4.54382
H        -77.28845       10.63908        2.51358
H        -78.74008        9.62694        2.26681
H        -81.74923        4.76491        3.65254
H        -79.22677        3.80632        0.46087
H        -77.45368        5.08399        1.58280
H        -74.41863        6.27436        3.36016
P        -73.88985        7.88466        5.16811
O        -73.21952        8.85240        6.10951
O        -73.28481        7.44773        3.85979
O        -74.31527        6.55825        5.96480
C        -74.86004        6.68580        7.25424
C        -74.47701        5.43996        8.02987
O        -75.40986        4.37268        7.74045
C        -73.08690        4.95561        7.65292
O        -72.53891        4.41722        8.84311
C        -73.37460        3.96241        6.52462
O        -72.38512        2.96897        6.32215
C        -74.76144        3.39580        6.88581
N        -75.67656        3.08917        5.78837
C        -75.41724        3.18479        4.44394
N        -76.42351        2.78014        3.69460
C        -77.39028        2.40928        4.59323
C        -78.66193        1.84329        4.38746
N        -79.15250        1.56721        3.11685
N        -79.38307        1.47072        5.46323
C        -78.80867        1.62341        6.67746
N        -77.61218        2.15992        7.00292
C        -76.94193        2.54495        5.89970
H        -74.65820        2.46212        7.45348
H        -73.41465        4.50935        5.58194
H        -72.43176        5.77021        7.32376
H        -74.57106        5.64657        9.10129
H        -74.44562        7.56261        7.75830
H        -75.94570        6.79076        7.17679
H        -79.39100        1.23765        7.50777
H        -74.47601        3.54381        4.04578
H        -80.16245        1.61997        3.03930
H        -78.63627        2.05290        2.38859
H        -71.50727        3.41071        6.44515
P        -70.97216        4.02907        8.81136
O        -70.36922        4.36018       10.15288
O        -70.37367        4.46441        7.50069
O        -71.19897        2.44967        8.70301
C        -71.80214        1.75677        9.76348
C        -71.41855        0.29449        9.63518
O        -72.37508       -0.40538        8.81238
C        -70.05295        0.12026        8.99898
O        -69.50383       -1.02019        9.63713
C        -70.40738       -0.02621        7.51684
O        -69.37502       -0.60729        6.74439
C        -71.74600       -0.80350        7.56135
N        -72.76232       -0.61498        6.51208
C        -73.94475       -1.36540        6.60625
O        -74.11208       -2.22427        7.47453
N        -74.96269       -1.13502        5.69848
C        -74.76044       -0.32632        4.70409
N        -75.78937       -0.14224        3.81666
C        -73.49095        0.38903        4.49841
C        -72.54908        0.19385        5.41849
H        -71.54389       -1.88132        7.61659
H        -70.56366        0.96510        7.08984
H        -69.36943        0.95643        9.18168
H        -71.48265       -0.17123       10.62428
H        -71.42100        2.14490       10.71106
H        -72.88709        1.88961        9.72078
H        -73.34615        1.00808        3.62506
H        -71.58293        0.66997        5.29715
H        -76.69542       -0.36359        4.21164
H        -75.80382        0.76328        3.34435
H        -68.50979       -0.31415        7.13113
P        -67.98694       -1.43271        9.28266
O        -67.32299       -1.90353       10.55294
O        -67.37586       -0.39398        8.37874
O        -68.38336       -2.70403        8.37814
C        -68.96379       -3.81589        9.02051
C        -68.59993       -5.06313        8.23390
O        -69.55261       -5.26172        7.15882
C        -67.20825       -4.96178        7.62768
O        -66.64905       -6.26297        7.69931
C        -67.50222       -4.41474        6.23100
O        -66.56875       -4.76294        5.22619
C        -68.92439       -4.91880        5.89975
N        -69.81241       -4.00885        5.17073
C        -69.56119       -2.68232        4.91267
N        -70.55072       -2.07068        4.30308
C        -71.45609       -3.05338        4.08298
C        -72.68652       -2.97946        3.33820
O        -73.13331       -1.99882        2.75139
N        -73.30033       -4.20662        3.22735
C        -72.68345       -5.39191        3.55215
N        -73.29559       -6.49511        3.03821
N        -71.56586       -5.49594        4.22793
C        -71.00333       -4.28687        4.51875
H        -68.86934       -5.82959        5.29077
H        -67.46364       -3.32736        6.29800
H        -66.55515       -4.28950        8.19646
H        -68.69679       -5.93355        8.89207
H        -68.56980       -3.91252       10.03595
H        -70.04798       -3.68017        9.06819
H        -74.16281       -4.17521        2.71333
H        -68.64116       -2.18388        5.18068
H        -73.75705       -6.31303        2.15507
H        -72.62726       -7.25430        2.96464
H        -65.68655       -4.83582        5.65331
P        -65.06246       -6.41121        7.42099
O        -64.51954       -7.54192        8.25711
O        -64.42229       -5.05467        7.34817
O        -65.21208       -6.90593        5.90183
C        -65.85573       -8.13503        5.67209
C        -65.50422       -8.61072        4.27872
O        -66.47644       -8.14017        3.32588
C        -64.14023       -8.12191        3.83513
O        -63.59881       -9.20935        3.10829
C        -64.48947       -6.85315        3.04951
O        -63.49387       -6.43013        2.13452
C        -65.85173       -7.20261        2.41163
N        -66.85739       -6.15298        2.15849
C        -68.08749       -6.56583        1.64778
O        -68.35583       -7.68891        1.21582
N        -69.07307       -5.61160        1.62447
C        -68.87579       -4.27547        1.76770
O        -69.68886       -3.45682        1.35422
C        -67.57748       -3.88210        2.32152
C        -66.63066       -4.81750        2.44479
H        -65.69479       -7.72105        1.45651
H        -64.60268       -6.03517        3.76311
H        -63.45354       -7.91589        4.66299
H        -65.58378       -9.70301        4.26036
H        -65.48574       -8.86576        6.39478
H        -66.93692       -8.01670        5.79015
H        -69.94531       -5.88126        1.20915
H        -67.42362       -2.84109        2.57540
H        -65.65003       -4.52526        2.80585
H        -62.61442       -6.64886        2.54132
P        -62.08662       -9.06974        2.57452
O        -61.41637      -10.41497        2.68928
O        -61.48206       -7.79477        3.10119
O        -62.51212       -8.80282        1.05050
C        -63.05779       -9.86025        0.30245
C        -62.67474       -9.63079       -1.14702
O        -63.60758       -8.71314       -1.76405
C        -61.28462       -9.02878       -1.26637
O        -60.73684       -9.57549       -2.45283
C        -61.57226       -7.52566       -1.27810
O        -60.58276       -6.72230       -1.89657
C        -62.95913       -7.42757       -1.94279
N        -63.87430       -6.39733       -1.45602
C        -63.61514       -5.44392       -0.50329
N        -64.62152       -4.61277       -0.31835
C        -65.58816       -5.04903       -1.18723
C        -66.85980       -4.52290       -1.48024
N        -67.35034       -3.38188       -0.85671
N        -67.58090       -5.09195       -2.46629
C        -67.00640       -6.10954       -3.14607
N        -65.80984       -6.70675       -2.95379
C        -65.13966       -6.12515       -1.94030
H        -62.85585       -7.24532       -3.02019
H        -61.61216       -7.17129       -0.24746
H        -60.62935       -9.31357       -0.43532
H        -62.76884      -10.57585       -1.69244
H        -62.64374      -10.81568        0.63484
H        -64.14336       -9.86995        0.43281
H        -67.58870       -6.48445       -3.98135
H        -62.67393       -5.37795        0.02877
H        -68.36030       -3.35773       -0.76612
H        -66.83403       -3.14955       -0.01275
H        -59.70494       -7.10451       -1.64319
P        -59.16987       -9.29817       -2.72495
O        -58.56768      -10.52914       -3.35328
O        -58.57115       -8.59328       -1.53743
O        -59.39560       -8.18172       -3.84757
C        -59.99909       -8.52901       -5.06565
C        -59.61498       -7.47476       -6.08682
O        -60.57135       -6.39448       -6.07748
C        -58.24942       -6.87986       -5.80174
O        -57.70047       -6.61524       -7.08157
C        -58.60393       -5.66380       -4.94189
O        -57.57155       -4.69950       -4.87506
C        -59.94243       -5.18838       -5.55875
N        -60.95922       -4.51903       -4.72943
C        -62.14134       -4.09867       -5.35852
O        -62.30821       -4.19235       -6.57629
N        -63.15953       -3.56355       -4.59015
C        -62.95744       -3.34176       -3.32774
N        -63.98657       -2.79175       -2.60776
C        -61.68814       -3.65474       -2.65208
C        -60.74612       -4.22225       -3.40195
H        -59.74006       -4.52419       -6.40934
H        -58.76036       -5.99026       -3.91310
H        -57.56585       -7.56549       -5.28948
H        -59.67887       -7.91753       -7.08641
H        -59.61860       -9.49957       -5.39288
H        -61.08406       -8.58308       -4.93719
H        -61.54354       -3.40013       -1.61227
H        -59.78004       -4.44233       -2.96245
H        -64.89244       -2.94548       -3.03400
H        -64.00122       -3.02761       -1.61411
H        -56.70629       -5.18368       -4.90715
P        -56.18366       -6.07713       -7.16148
O        -55.51991       -6.72894       -8.34920
O        -55.57239       -6.07408       -5.78461
O        -56.58024       -4.56106       -7.53003
C        -57.16102       -4.31856       -8.79086
C        -56.79748       -2.90727       -9.21855
O        -57.75027       -1.96484       -8.66461
C        -55.40582       -2.51524       -8.74512
O        -54.84662       -1.71732       -9.77545
C        -55.69981       -1.81786       -7.41709
O        -54.76636       -0.83037       -7.02242
C        -57.12207       -1.23762       -7.58108
N        -58.01002       -1.28253       -6.41592
C        -57.75878       -1.95624       -5.24443
N        -58.74829       -1.89612       -4.38297
C        -59.65367       -1.08621       -4.98146
C        -60.88411       -0.57177       -4.43784
O        -61.33087       -0.77049       -3.31243
N        -61.49794        0.31562       -5.29266
C        -60.88114        0.84637       -6.40117
N        -61.49349        1.95716       -6.89839
N        -59.76352        0.40381       -6.92234
C        -59.20095       -0.60775       -6.19904
H        -57.06719       -0.18098       -7.87076
H        -55.66110       -2.58048       -6.63910
H        -54.75264       -3.38526       -8.60946
H        -56.89446       -2.83480      -10.30739
H        -56.76711       -5.02270       -9.52891
H        -58.24517       -4.44363       -8.71923
H        -62.36043        0.68351       -4.93231
H        -56.83873       -2.48516       -5.04328
H        -61.95468        2.50542       -6.18233
H        -60.82503        2.50992       -7.42392